  -2.19999999E-02     1.00000002E-24
  -2.19899993E-02     1.00000002E-24
  -2.19800007E-02     1.00000002E-24
  -2.19700001E-02     1.00000012E-24
  -2.19599996E-02     1.00000022E-24
  -2.19500009E-02     1.00000022E-24
  -2.19400004E-02     1.00000022E-24
  -2.19299998E-02     1.00000022E-24
  -2.19199993E-02     1.00000022E-24
  -2.19100006E-02     1.00000022E-24
  -2.19000001E-02     1.00000022E-24
  -2.18899995E-02     1.00000022E-24
  -2.18800008E-02     1.00000022E-24
  -2.18700003E-02     1.00000022E-24
  -2.18599997E-02     1.00000022E-24
  -2.18499992E-02     1.00000012E-24
  -2.18400005E-02     1.00000002E-24
  -2.18300000E-02     9.99999921E-25
  -2.18199994E-02     9.99999921E-25
  -2.18100008E-02     1.00000002E-24
  -2.18000002E-02     1.00000022E-24
  -2.17899997E-02     1.00000041E-24
  -2.17799991E-02     1.00000061E-24
  -2.17700005E-02     1.00000061E-24
  -2.17599999E-02     1.00000051E-24
  -2.17499994E-02     1.00000041E-24
  -2.17400007E-02     1.00000022E-24
  -2.17300002E-02     1.00000002E-24
  -2.17199996E-02     1.00000002E-24
  -2.17099991E-02     1.00000012E-24
  -2.17000004E-02     1.00000022E-24
  -2.16899998E-02     1.00000041E-24
  -2.16799993E-02     1.00000051E-24
  -2.16700006E-02     1.00000061E-24
  -2.16600001E-02     1.00000051E-24
  -2.16499995E-02     1.00000032E-24
  -2.16400009E-02     1.00000012E-24
  -2.16300003E-02     9.99999921E-25
  -2.16199998E-02     9.99999724E-25
  -2.16099992E-02     9.99999724E-25
  -2.16000006E-02     9.99999921E-25
  -2.15900000E-02     1.00000032E-24
  -2.15799995E-02     1.00000061E-24
  -2.15700008E-02     1.00000081E-24
  -2.15600003E-02     1.00000081E-24
  -2.15499997E-02     1.00000061E-24
  -2.15399992E-02     1.00000012E-24
  -2.15300005E-02     9.99999428E-25
  -2.15200000E-02     9.99998738E-25
  -2.15099994E-02     9.99998047E-25
  -2.15000007E-02     9.99997554E-25
  -2.14900002E-02     9.99997357E-25
  -2.14799996E-02     9.99997357E-25
  -2.14699991E-02     9.99997554E-25
  -2.14600004E-02     9.99997850E-25
  -2.14499999E-02     9.99998343E-25
  -2.14399993E-02     9.99999033E-25
  -2.14300007E-02     9.99999921E-25
  -2.14200001E-02     1.00000101E-24
  -2.14099996E-02     1.00000219E-24
  -2.14000009E-02     1.00000337E-24
  -2.13900004E-02     1.00000406E-24
  -2.13799998E-02     1.00000416E-24
  -2.13699993E-02     1.00000337E-24
  -2.13600006E-02     1.00000140E-24
  -2.13500001E-02     9.99998146E-25
  -2.13399995E-02     9.99993709E-25
  -2.13300008E-02     9.99988680E-25
  -2.13200003E-02     9.99983651E-25
  -2.13099997E-02     9.99979608E-25
  -2.12999992E-02     9.99977636E-25
  -2.12900005E-02     9.99978424E-25
  -2.12800000E-02     9.99982566E-25
  -2.12699994E-02     9.99989962E-25
  -2.12600008E-02     1.00000002E-24
  -2.12500002E-02     1.00001215E-24
  -2.12399997E-02     1.00002526E-24
  -2.12299991E-02     1.00003788E-24
  -2.12200005E-02     1.00004873E-24
  -2.12099999E-02     1.00005613E-24
  -2.11999994E-02     1.00005909E-24
  -2.11900007E-02     1.00005652E-24
  -2.11800002E-02     1.00004834E-24
  -2.11699996E-02     1.00003473E-24
  -2.11599991E-02     1.00001708E-24
  -2.11500004E-02     9.99997357E-25
  -2.11399999E-02     9.99977931E-25
  -2.11299993E-02     9.99962056E-25
  -2.11200006E-02     9.99952589E-25
  -2.11100001E-02     9.99951603E-25
  -2.10999995E-02     9.99960872E-25
  -2.10900009E-02     9.99980495E-25
  -2.10800003E-02     1.00000909E-24
  -2.10699998E-02     1.00004380E-24
  -2.10599992E-02     1.00008048E-24
  -2.10500006E-02     1.00011440E-24
  -2.10400000E-02     1.00014083E-24
  -2.10299995E-02     1.00015543E-24
  -2.10200008E-02     1.00015533E-24
  -2.10100003E-02     1.00013915E-24
  -2.09999997E-02     1.00010750E-24
  -2.09899992E-02     1.00006254E-24
  -2.09800005E-02     1.00000751E-24
  -2.09700000E-02     9.99946574E-25
  -2.09599994E-02     9.99884451E-25
  -2.09500007E-02     9.99825484E-25
  -2.09400002E-02     9.99773123E-25
  -2.09299996E-02     9.99730525E-25
  -2.09199991E-02     9.99699168E-25
  -2.09100004E-02     9.99679939E-25
  -2.08999999E-02     9.99672938E-25
  -2.08899993E-02     9.99678362E-25
  -2.08800007E-02     9.99696407E-25
  -2.08700001E-02     9.99727863E-25
  -2.08599996E-02     9.99774307E-25
  -2.08500009E-02     9.99838007E-25
  -2.08400004E-02     9.99922317E-25
  -2.08299998E-02     1.00003079E-24
  -2.08199993E-02     1.00016746E-24
  -2.08100006E-02     1.00033529E-24
  -2.08000001E-02     1.00053644E-24
  -2.07899995E-02     1.00077084E-24
  -2.07800008E-02     1.00103540E-24
  -2.07700003E-02     1.00132412E-24
  -2.07599998E-02     1.00162764E-24
  -2.07499992E-02     1.00193421E-24
  -2.07400005E-02     1.00223013E-24
  -2.07300000E-02     1.00250100E-24
  -2.07199994E-02     1.00273323E-24
  -2.07100008E-02     1.00291496E-24
  -2.07000002E-02     1.00303812E-24
  -2.06899997E-02     1.00309857E-24
  -2.06799991E-02     1.00309699E-24
  -2.06700005E-02     1.00303881E-24
  -2.06599999E-02     1.00293330E-24
  -2.06499994E-02     1.00279288E-24
  -2.06400007E-02     1.00263067E-24
  -2.06300002E-02     1.00245998E-24
  -2.06199996E-02     1.00229166E-24
  -2.06099991E-02     1.00213409E-24
  -2.06000004E-02     1.00199150E-24
  -2.05899999E-02     1.00186410E-24
  -2.05799993E-02     1.00174823E-24
  -2.05700006E-02     1.00163730E-24
  -2.05600001E-02     1.00152301E-24
  -2.05499995E-02     1.00139660E-24
  -2.05400009E-02     1.00125066E-24
  -2.05300003E-02     1.00108056E-24
  -2.05199998E-02     1.00088512E-24
  -2.05099992E-02     1.00066749E-24
  -2.05000006E-02     1.00043478E-24
  -2.04900000E-02     1.00019714E-24
  -2.04799995E-02     9.99966394E-25
  -2.04700008E-02     9.99754289E-25
  -2.04600003E-02     9.99570485E-25
  -2.04499997E-02     9.99420601E-25
  -2.04399992E-02     9.99304836E-25
  -2.04300005E-02     9.99217765E-25
  -2.04200000E-02     9.99147360E-25
  -2.04099994E-02     9.99077249E-25
  -2.04000007E-02     9.98987221E-25
  -2.03900002E-02     9.98857256E-25
  -2.03799997E-02     9.98669408E-25
  -2.03699991E-02     9.98410366E-25
  -2.03600004E-02     9.98073917E-25
  -2.03499999E-02     9.97662427E-25
  -2.03399993E-02     9.97186744E-25
  -2.03300007E-02     9.96665603E-25
  -2.03200001E-02     9.96123853E-25
  -2.03099996E-02     9.95589695E-25
  -2.03000009E-02     9.95092319E-25
  -2.02900004E-02     9.94657262E-25
  -2.02799998E-02     9.94305627E-25
  -2.02699993E-02     9.94050036E-25
  -2.02600006E-02     9.93894433E-25
  -2.02500001E-02     9.93834480E-25
  -2.02399995E-02     9.93857554E-25
  -2.02300008E-02     9.93945808E-25
  -2.02200003E-02     9.94078139E-25
  -2.02099998E-02     9.94233644E-25
  -2.01999992E-02     9.94393980E-25
  -2.01900005E-02     9.94545244E-25
  -2.01800000E-02     9.94679646E-25
  -2.01699995E-02     9.94795608E-25
  -2.01600008E-02     9.94896878E-25
  -2.01500002E-02     9.94990654E-25
  -2.01399997E-02     9.95085712E-25
  -2.01299991E-02     9.95189644E-25
  -2.01200005E-02     9.95306297E-25
  -2.01099999E-02     9.95434684E-25
  -2.00999994E-02     9.95566818E-25
  -2.00900007E-02     9.95688402E-25
  -2.00800002E-02     9.95779219E-25
  -2.00699996E-02     9.95814619E-25
  -2.00599991E-02     9.95768274E-25
  -2.00500004E-02     9.95613361E-25
  -2.00399999E-02     9.95325821E-25
  -2.00299993E-02     9.94885834E-25
  -2.00200006E-02     9.94279595E-25
  -2.00100001E-02     9.93499510E-25
  -1.99999996E-02     9.92545087E-25
  -1.99900009E-02     9.91421650E-25
  -1.99800003E-02     9.90140244E-25
  -1.99699998E-02     9.88716843E-25
  -1.99599992E-02     9.87170479E-25
  -1.99500006E-02     9.85523041E-25
  -1.99400000E-02     9.83798394E-25
  -1.99299995E-02     9.82021584E-25
  -1.99200008E-02     9.80219530E-25
  -1.99100003E-02     9.78419941E-25
  -1.98999997E-02     9.76651610E-25
  -1.98899992E-02     9.74943924E-25
  -1.98800005E-02     9.73325970E-25
  -1.98700000E-02     9.71826937E-25
  -1.98599994E-02     9.70473153E-25
  -1.98500007E-02     9.69288185E-25
  -1.98400002E-02     9.68291755E-25
  -1.98299997E-02     9.67498063E-25
  -1.98199991E-02     9.66915292E-25
  -1.98100004E-02     9.66545513E-25
  -1.97999999E-02     9.66384783E-25
  -1.97899994E-02     9.66424719E-25
  -1.97800007E-02     9.66653686E-25
  -1.97700001E-02     9.67058963E-25
  -1.97599996E-02     9.67628323E-25
  -1.97500009E-02     9.68351709E-25
  -1.97400004E-02     9.69222020E-25
  -1.97299998E-02     9.70234523E-25
  -1.97199993E-02     9.71386161E-25
  -1.97100006E-02     9.72673089E-25
  -1.97000001E-02     9.74087714E-25
  -1.96899995E-02     9.75616033E-25
  -1.96800008E-02     9.77234283E-25
  -1.96700003E-02     9.78907062E-25
  -1.96599998E-02     9.80586942E-25
  -1.96499992E-02     9.82215150E-25
  -1.96400005E-02     9.83724932E-25
  -1.96300000E-02     9.85046076E-25
  -1.96199995E-02     9.86110447E-25
  -1.96100008E-02     9.86858090E-25
  -1.96000002E-02     9.87244040E-25
  -1.95899997E-02     9.87242364E-25
  -1.95799991E-02     9.86848821E-25
  -1.95700005E-02     9.86081851E-25
  -1.95599999E-02     9.84979319E-25
  -1.95499994E-02     9.83594671E-25
  -1.95400007E-02     9.81990029E-25
  -1.95300002E-02     9.80228700E-25
  -1.95199996E-02     9.78367580E-25
  -1.95099991E-02     9.76450747E-25
  -1.95000004E-02     9.74505711E-25
  -1.94899999E-02     9.72541349E-25
  -1.94799993E-02     9.70549377E-25
  -1.94700006E-02     9.68508692E-25
  -1.94600001E-02     9.66391488E-25
  -1.94499996E-02     9.64170943E-25
  -1.94400009E-02     9.61828519E-25
  -1.94300003E-02     9.59360568E-25
  -1.94199998E-02     9.56783162E-25
  -1.94099993E-02     9.54133181E-25
  -1.94000006E-02     9.51467029E-25
  -1.93900000E-02     9.48856096E-25
  -1.93799995E-02     9.46380355E-25
  -1.93700008E-02     9.44119775E-25
  -1.93600003E-02     9.42145947E-25
  -1.93499997E-02     9.40515174E-25
  -1.93399992E-02     9.39262069E-25
  -1.93300005E-02     9.38397773E-25
  -1.93200000E-02     9.37909369E-25
  -1.93099994E-02     9.37764022E-25
  -1.93000007E-02     9.37914201E-25
  -1.92900002E-02     9.38305082E-25
  -1.92799997E-02     9.38882133E-25
  -1.92699991E-02     9.39599011E-25
  -1.92600004E-02     9.40422483E-25
  -1.92499999E-02     9.41337266E-25
  -1.92399994E-02     9.42345529E-25
  -1.92300007E-02     9.43465415E-25
  -1.92200001E-02     9.44726705E-25
  -1.92099996E-02     9.46164404E-25
  -1.92000009E-02     9.47811250E-25
  -1.91900004E-02     9.49690711E-25
  -1.91799998E-02     9.51810775E-25
  -1.91699993E-02     9.54159904E-25
  -1.91600006E-02     9.56704868E-25
  -1.91500001E-02     9.59391235E-25
  -1.91399995E-02     9.62147022E-25
  -1.91300008E-02     9.64887623E-25
  -1.91200003E-02     9.67522715E-25
  -1.91099998E-02     9.69963746E-25
  -1.90999992E-02     9.72130550E-25
  -1.90900005E-02     9.73958045E-25
  -1.90800000E-02     9.75400082E-25
  -1.90699995E-02     9.76431913E-25
  -1.90600008E-02     9.77050182E-25
  -1.90500002E-02     9.77271359E-25
  -1.90399997E-02     9.77127195E-25
  -1.90299992E-02     9.76661471E-25
  -1.90200005E-02     9.75924182E-25
  -1.90099999E-02     9.74966012E-25
  -1.89999994E-02     9.73834095E-25
  -1.89900007E-02     9.72568663E-25
  -1.89800002E-02     9.71200877E-25
  -1.89699996E-02     9.69751838E-25
  -1.89599991E-02     9.68233577E-25
  -1.89500004E-02     9.66650629E-25
  -1.89399999E-02     9.65002994E-25
  -1.89299993E-02     9.63289095E-25
  -1.89200006E-02     9.61509031E-25
  -1.89100001E-02     9.59667632E-25
  -1.88999996E-02     9.57775747E-25
  -1.88900009E-02     9.55852701E-25
  -1.88800003E-02     9.53925711E-25
  -1.88699998E-02     9.52028796E-25
  -1.88599993E-02     9.50201006E-25
  -1.88500006E-02     9.48483655E-25
  -1.88400000E-02     9.46917766E-25
  -1.88299995E-02     9.45540908E-25
  -1.88200008E-02     9.44384635E-25
  -1.88100003E-02     9.43471529E-25
  -1.87999997E-02     9.42814802E-25
  -1.87899992E-02     9.42416723E-25
  -1.87800005E-02     9.42269108E-25
  -1.87700000E-02     9.42354009E-25
  -1.87599994E-02     9.42645493E-25
  -1.87500007E-02     9.43112301E-25
  -1.87400002E-02     9.43720119E-25
  -1.87299997E-02     9.44434531E-25
  -1.87199991E-02     9.45223293E-25
  -1.87100004E-02     9.46059289E-25
  -1.86999999E-02     9.46921711E-25
  -1.86899994E-02     9.47797642E-25
  -1.86800007E-02     9.48681659E-25
  -1.86700001E-02     9.49575143E-25
  -1.86599996E-02     9.50485094E-25
  -1.86500009E-02     9.51421669E-25
  -1.86400004E-02     9.52394532E-25
  -1.86299998E-02     9.53410388E-25
  -1.86199993E-02     9.54469828E-25
  -1.86100006E-02     9.55565161E-25
  -1.86000001E-02     9.56678540E-25
  -1.85899995E-02     9.57782649E-25
  -1.85800008E-02     9.58840807E-25
  -1.85700003E-02     9.59809923E-25
  -1.85599998E-02     9.60644143E-25
  -1.85499992E-02     9.61299391E-25
  -1.85400005E-02     9.61738688E-25
  -1.85300000E-02     9.61936988E-25
  -1.85199995E-02     9.61885416E-25
  -1.85100008E-02     9.61594129E-25
  -1.85000002E-02     9.61092512E-25
  -1.84899997E-02     9.60427207E-25
  -1.84799992E-02     9.59658264E-25
  -1.84700005E-02     9.58853824E-25
  -1.84599999E-02     9.58082416E-25
  -1.84499994E-02     9.57406067E-25
  -1.84400007E-02     9.56873388E-25
  -1.84300002E-02     9.56514457E-25
  -1.84199996E-02     9.56338639E-25
  -1.84099991E-02     9.56333906E-25
  -1.84000004E-02     9.56470971E-25
  -1.83899999E-02     9.56707925E-25
  -1.83799993E-02     9.56998719E-25
  -1.83700006E-02     9.57300359E-25
  -1.83600001E-02     9.57580602E-25
  -1.83499996E-02     9.57823275E-25
  -1.83400009E-02     9.58031337E-25
  -1.83300003E-02     9.58226876E-25
  -1.83199998E-02     9.58448645E-25
  -1.83099993E-02     9.58745947E-25
  -1.83000006E-02     9.59170946E-25
  -1.82900000E-02     9.59770480E-25
  -1.82799995E-02     9.60577189E-25
  -1.82700008E-02     9.61603398E-25
  -1.82600003E-02     9.62836191E-25
  -1.82499997E-02     9.64236912E-25
  -1.82399992E-02     9.65744031E-25
  -1.82300005E-02     9.67279055E-25
  -1.82200000E-02     9.68755408E-25
  -1.82099994E-02     9.70088189E-25
  -1.82000007E-02     9.71204033E-25
  -1.81900002E-02     9.72051269E-25
  -1.81799997E-02     9.72605937E-25
  -1.81699991E-02     9.72875530E-25
  -1.81600004E-02     9.72897914E-25
  -1.81499999E-02     9.72737184E-25
  -1.81399994E-02     9.72475676E-25
  -1.81300007E-02     9.72203125E-25
  -1.81200001E-02     9.72005022E-25
  -1.81099996E-02     9.71951478E-25
  -1.81000009E-02     9.72088346E-25
  -1.80900004E-02     9.72431204E-25
  -1.80799998E-02     9.72963784E-25
  -1.80699993E-02     9.73639739E-25
  -1.80600006E-02     9.74389157E-25
  -1.80500001E-02     9.75128813E-25
  -1.80399995E-02     9.75773115E-25
  -1.80300009E-02     9.76246432E-25
  -1.80200003E-02     9.76493740E-25
  -1.80099998E-02     9.76488513E-25
  -1.79999992E-02     9.76236669E-25
  -1.79900005E-02     9.75775383E-25
  -1.79800000E-02     9.75167664E-25
  -1.79699995E-02     9.74493583E-25
  -1.79600008E-02     9.73838631E-25
  -1.79500002E-02     9.73282681E-25
  -1.79399997E-02     9.72887560E-25
  -1.79299992E-02     9.72689261E-25
  -1.79200005E-02     9.72692317E-25
  -1.79099999E-02     9.72868726E-25
  -1.78999994E-02     9.73162577E-25
  -1.78900007E-02     9.73496068E-25
  -1.78800002E-02     9.73780748E-25
  -1.78699996E-02     9.73929153E-25
  -1.78599991E-02     9.73866340E-25
  -1.78500004E-02     9.73539850E-25
  -1.78399999E-02     9.72925820E-25
  -1.78299993E-02     9.72032632E-25
  -1.78200006E-02     9.70898842E-25
  -1.78100001E-02     9.69589530E-25
  -1.77999996E-02     9.68187724E-25
  -1.77900009E-02     9.66784144E-25
  -1.77800003E-02     9.65466450E-25
  -1.77699998E-02     9.64308895E-25
  -1.77599993E-02     9.63363939E-25
  -1.77500006E-02     9.62655837E-25
  -1.77400000E-02     9.62178872E-25
  -1.77299995E-02     9.61899024E-25
  -1.77200008E-02     9.61759889E-25
  -1.77100003E-02     9.61690863E-25
  -1.76999997E-02     9.61615921E-25
  -1.76899992E-02     9.61464559E-25
  -1.76800005E-02     9.61180865E-25
  -1.76700000E-02     9.60731017E-25
  -1.76599994E-02     9.60108014E-25
  -1.76500008E-02     9.59333944E-25
  -1.76400002E-02     9.58457618E-25
  -1.76299997E-02     9.57549738E-25
  -1.76199991E-02     9.56695303E-25
  -1.76100004E-02     9.55984342E-25
  -1.75999999E-02     9.55501263E-25
  -1.75899994E-02     9.55316078E-25
  -1.75800007E-02     9.55475921E-25
  -1.75700001E-02     9.55999626E-25
  -1.75599996E-02     9.56873980E-25
  -1.75500009E-02     9.58053721E-25
  -1.75400004E-02     9.59464501E-25
  -1.75299998E-02     9.61008006E-25
  -1.75199993E-02     9.62570838E-25
  -1.75100006E-02     9.64034470E-25
  -1.75000001E-02     9.65285900E-25
  -1.74899995E-02     9.66228687E-25
  -1.74800009E-02     9.66791934E-25
  -1.74700003E-02     9.66937774E-25
  -1.74599998E-02     9.66664434E-25
  -1.74499992E-02     9.66006623E-25
  -1.74400005E-02     9.65033070E-25
  -1.74300000E-02     9.63838537E-25
  -1.74199995E-02     9.62533761E-25
  -1.74100008E-02     9.61233127E-25
  -1.74000002E-02     9.60041158E-25
  -1.73899997E-02     9.59040291E-25
  -1.73799992E-02     9.58279829E-25
  -1.73700005E-02     9.57770027E-25
  -1.73599999E-02     9.57480515E-25
  -1.73499994E-02     9.57344042E-25
  -1.73400007E-02     9.57265156E-25
  -1.73300002E-02     9.57131937E-25
  -1.73199996E-02     9.56832072E-25
  -1.73099991E-02     9.56267740E-25
  -1.73000004E-02     9.55369918E-25
  -1.72899999E-02     9.54110403E-25
  -1.72799993E-02     9.52507043E-25
  -1.72700007E-02     9.50624131E-25
  -1.72600001E-02     9.48566190E-25
  -1.72499996E-02     9.46465059E-25
  -1.72400009E-02     9.44464015E-25
  -1.72300003E-02     9.42698051E-25
  -1.72199998E-02     9.41277017E-25
  -1.72099993E-02     9.40269641E-25
  -1.72000006E-02     9.39694167E-25
  -1.71900000E-02     9.39514701E-25
  -1.71799995E-02     9.39645061E-25
  -1.71700008E-02     9.39960013E-25
  -1.71600003E-02     9.40312141E-25
  -1.71499997E-02     9.40551462E-25
  -1.71399992E-02     9.40547517E-25
  -1.71300005E-02     9.40207617E-25
  -1.71200000E-02     9.39491233E-25
  -1.71099994E-02     9.38417692E-25
  -1.71000008E-02     9.37064894E-25
  -1.70900002E-02     9.35560536E-25
  -1.70799997E-02     9.34066631E-25
  -1.70699991E-02     9.32759883E-25
  -1.70600004E-02     9.31808615E-25
  -1.70499999E-02     9.31352259E-25
  -1.70399994E-02     9.31482125E-25
  -1.70300007E-02     9.32229374E-25
  -1.70200001E-02     9.33559196E-25
  -1.70099996E-02     9.35373773E-25
  -1.70000009E-02     9.37522334E-25
  -1.69900004E-02     9.39817821E-25
  -1.69799998E-02     9.42057496E-25
  -1.69699993E-02     9.44046116E-25
  -1.69600006E-02     9.45616836E-25
  -1.69500001E-02     9.46648469E-25
  -1.69399995E-02     9.47078694E-25
  -1.69300009E-02     9.46908300E-25
  -1.69200003E-02     9.46198818E-25
  -1.69099998E-02     9.45063056E-25
  -1.68999992E-02     9.43648431E-25
  -1.68900006E-02     9.42116660E-25
  -1.68800000E-02     9.40621473E-25
  -1.68699995E-02     9.39287707E-25
  -1.68600008E-02     9.38194345E-25
  -1.68500002E-02     9.37363872E-25
  -1.68399997E-02     9.36759802E-25
  -1.68299992E-02     9.36291711E-25
  -1.68200005E-02     9.35828551E-25
  -1.68099999E-02     9.35217086E-25
  -1.67999994E-02     9.34304472E-25
  -1.67900007E-02     9.32960943E-25
  -1.67800002E-02     9.31100809E-25
  -1.67699996E-02     9.28698038E-25
  -1.67599991E-02     9.25793748E-25
  -1.67500004E-02     9.22496013E-25
  -1.67399999E-02     9.18970200E-25
  -1.67299993E-02     9.15421903E-25
  -1.67200007E-02     9.12073780E-25
  -1.67100001E-02     9.09140795E-25
  -1.66999996E-02     9.06804485E-25
  -1.66900009E-02     9.05192941E-25
  -1.66800003E-02     9.04365130E-25
  -1.66699998E-02     9.04304782E-25
  -1.66599993E-02     9.04922559E-25
  -1.66500006E-02     9.06067591E-25
  -1.66400000E-02     9.07546113E-25
  -1.66299995E-02     9.09145726E-25
  -1.66200008E-02     9.10660832E-25
  -1.66100003E-02     9.11917389E-25
  -1.65999997E-02     9.12793024E-25
  -1.65899992E-02     9.13228870E-25
  -1.65800005E-02     9.13234885E-25
  -1.65700000E-02     9.12884138E-25
  -1.65599994E-02     9.12301564E-25
  -1.65500008E-02     9.11644640E-25
  -1.65400002E-02     9.11081295E-25
  -1.65299997E-02     9.10766934E-25
  -1.65199991E-02     9.10823140E-25
  -1.65100005E-02     9.11321207E-25
  -1.64999999E-02     9.12272672E-25
  -1.64899994E-02     9.13626653E-25
  -1.64800007E-02     9.15275668E-25
  -1.64700001E-02     9.17068650E-25
  -1.64599996E-02     9.18828895E-25
  -1.64500009E-02     9.20374766E-25
  -1.64400004E-02     9.21542182E-25
  -1.64299998E-02     9.22204233E-25
  -1.64199993E-02     9.22286867E-25
  -1.64100006E-02     9.21778643E-25
  -1.64000001E-02     9.20733599E-25
  -1.63899995E-02     9.19265529E-25
  -1.63800009E-02     9.17535557E-25
  -1.63700003E-02     9.15733405E-25
  -1.63599998E-02     9.14055004E-25
  -1.63499992E-02     9.12679034E-25
  -1.63400006E-02     9.11745022E-25
  -1.63300000E-02     9.11336393E-25
  -1.63199995E-02     9.11470499E-25
  -1.63100008E-02     9.12096263E-25
  -1.63000003E-02     9.13100088E-25
  -1.62899997E-02     9.14320653E-25
  -1.62799992E-02     9.15569124E-25
  -1.62700005E-02     9.16653611E-25
  -1.62599999E-02     9.17404311E-25
  -1.62499994E-02     9.17695893E-25
  -1.62400007E-02     9.17464856E-25
  -1.62300002E-02     9.16718396E-25
  -1.62199996E-02     9.15535203E-25
  -1.62099991E-02     9.14055991E-25
  -1.62000004E-02     9.12466830E-25
  -1.61899999E-02     9.10976080E-25
  -1.61799993E-02     9.09788253E-25
  -1.61700007E-02     9.09077687E-25
  -1.61600001E-02     9.08965668E-25
  -1.61499996E-02     9.09504362E-25
  -1.61400009E-02     9.10668720E-25
  -1.61300004E-02     9.12358756E-25
  -1.61199998E-02     9.14410583E-25
  -1.61099993E-02     9.16617126E-25
  -1.61000006E-02     9.18753756E-25
  -1.60900000E-02     9.20606297E-25
  -1.60799995E-02     9.21997552E-25
  -1.60700008E-02     9.22809092E-25
  -1.60600003E-02     9.22995559E-25
  -1.60499997E-02     9.22589198E-25
  -1.60399992E-02     9.21694136E-25
  -1.60300005E-02     9.20470317E-25
  -1.60200000E-02     9.19110913E-25
  -1.60099994E-02     9.17814420E-25
  -1.60000008E-02     9.16756064E-25
  -1.59900002E-02     9.16063050E-25
  -1.59799997E-02     9.15796809E-25
  -1.59699991E-02     9.15943340E-25
  -1.59600005E-02     9.16415572E-25
  -1.59499999E-02     9.17065495E-25
  -1.59399994E-02     9.17704965E-25
  -1.59300007E-02     9.18132725E-25
  -1.59200002E-02     9.18162998E-25
  -1.59099996E-02     9.17653196E-25
  -1.59000009E-02     9.16525618E-25
  -1.58900004E-02     9.14780263E-25
  -1.58799998E-02     9.12497990E-25
  -1.58699993E-02     9.09831838E-25
  -1.58600006E-02     9.06989670E-25
  -1.58500001E-02     9.04208541E-25
  -1.58399995E-02     9.01725700E-25
  -1.58300009E-02     8.99750294E-25
  -1.58200003E-02     8.98438122E-25
  -1.58099998E-02     8.97874087E-25
  -1.57999992E-02     8.98063611E-25
  -1.57900006E-02     8.98933921E-25
  -1.57800000E-02     9.00345095E-25
  -1.57699995E-02     9.02109580E-25
  -1.57600008E-02     9.04017045E-25
  -1.57500003E-02     9.05860712E-25
  -1.57399997E-02     9.07463085E-25
  -1.57299992E-02     9.08696371E-25
  -1.57200005E-02     9.09497065E-25
  -1.57099999E-02     9.09869801E-25
  -1.56999994E-02     9.09883804E-25
  -1.56900007E-02     9.09660556E-25
  -1.56800002E-02     9.09355070E-25
  -1.56699996E-02     9.09132710E-25
  -1.56599991E-02     9.09145824E-25
  -1.56500004E-02     9.09511166E-25
  -1.56399999E-02     9.10292532E-25
  -1.56299993E-02     9.11491502E-25
  -1.56199997E-02     9.13044572E-25
  -1.56100001E-02     9.14829863E-25
  -1.55999996E-02     9.16682108E-25
  -1.55900000E-02     9.18412869E-25
  -1.55800004E-02     9.19834101E-25
  -1.55699998E-02     9.20782509E-25
  -1.55600002E-02     9.21140652E-25
  -1.55499997E-02     9.20854197E-25
  -1.55400001E-02     9.19940597E-25
  -1.55300004E-02     9.18489783E-25
  -1.55199999E-02     9.16655879E-25
  -1.55100003E-02     9.14639550E-25
  -1.54999997E-02     9.12664834E-25
  -1.54900001E-02     9.10951921E-25
  -1.54799996E-02     9.09689941E-25
  -1.54700000E-02     9.09011521E-25
  -1.54600004E-02     9.08976121E-25
  -1.54499998E-02     9.09560174E-25
  -1.54400002E-02     9.10659451E-25
  -1.54299997E-02     9.12100700E-25
  -1.54200001E-02     9.13662645E-25
  -1.54100005E-02     9.15105471E-25
  -1.53999999E-02     9.16201692E-25
  -1.53900003E-02     9.16767601E-25
  -1.53799998E-02     9.16688814E-25
  -1.53700002E-02     9.15936931E-25
  -1.53599996E-02     9.14575061E-25
  -1.53500000E-02     9.12750524E-25
  -1.53400004E-02     9.10674834E-25
  -1.53299998E-02     9.08595791E-25
  -1.53200002E-02     9.06762873E-25
  -1.53099997E-02     9.05392621E-25
  -1.53000001E-02     9.04637484E-25
  -1.52899995E-02     9.04563923E-25
  -1.52799999E-02     9.05142651E-25
  -1.52700003E-02     9.06251987E-25
  -1.52599998E-02     9.07696095E-25
  -1.52500002E-02     9.09233487E-25
  -1.52399996E-02     9.10612908E-25
  -1.52300000E-02     9.11611508E-25
  -1.52200004E-02     9.12069639E-25
  -1.52099999E-02     9.11915811E-25
  -1.52000003E-02     9.11180198E-25
  -1.51899997E-02     9.09992075E-25
  -1.51800001E-02     9.08563546E-25
  -1.51699996E-02     9.07160853E-25
  -1.51600000E-02     9.06067393E-25
  -1.51500003E-02     9.05542308E-25
  -1.51399998E-02     9.05782910E-25
  -1.51300002E-02     9.06894415E-25
  -1.51199996E-02     9.08871892E-25
  -1.51100000E-02     9.11598196E-25
  -1.51000004E-02     9.14855895E-25
  -1.50899999E-02     9.18354691E-25
  -1.50800003E-02     9.21768092E-25
  -1.50699997E-02     9.24775920E-25
  -1.50600001E-02     9.27105130E-25
  -1.50499996E-02     9.28565805E-25
  -1.50400000E-02     9.29074522E-25
  -1.50300004E-02     9.28664906E-25
  -1.50199998E-02     9.27482403E-25
  -1.50100002E-02     9.25762884E-25
  -1.49999997E-02     9.23801381E-25
  -1.49900001E-02     9.21911960E-25
  -1.49800004E-02     9.20385909E-25
  -1.49699999E-02     9.19453673E-25
  -1.49600003E-02     9.19255669E-25
  -1.49499997E-02     9.19825029E-25
  -1.49400001E-02     9.21085727E-25
  -1.49299996E-02     9.22864411E-25
  -1.49200000E-02     9.24915154E-25
  -1.49100004E-02     9.26952387E-25
  -1.48999998E-02     9.28688473E-25
  -1.48900002E-02     9.29870778E-25
  -1.48799997E-02     9.30312639E-25
  -1.48700001E-02     9.29916236E-25
  -1.48600005E-02     9.28682556E-25
  -1.48499999E-02     9.26709714E-25
  -1.48400003E-02     9.24178555E-25
  -1.48299998E-02     9.21329387E-25
  -1.48200002E-02     9.18431112E-25
  -1.48099996E-02     9.15748787E-25
  -1.48000000E-02     9.13511972E-25
  -1.47900004E-02     9.11888891E-25
  -1.47799999E-02     9.10966910E-25
  -1.47700002E-02     9.10745043E-25
  -1.47599997E-02     9.11135430E-25
  -1.47500001E-02     9.11976553E-25
  -1.47399995E-02     9.13054729E-25
  -1.47299999E-02     9.14132214E-25
  -1.47200003E-02     9.14977084E-25
  -1.47099998E-02     9.15393997E-25
  -1.47000002E-02     9.15248748E-25
  -1.46899996E-02     9.14486117E-25
  -1.46800000E-02     9.13137263E-25
  -1.46700004E-02     9.11317065E-25
  -1.46599999E-02     9.09210610E-25
  -1.46500003E-02     9.07051793E-25
  -1.46399997E-02     9.05094728E-25
  -1.46300001E-02     9.03583172E-25
  -1.46199996E-02     9.02720158E-25
  -1.46100000E-02     9.02643047E-25
  -1.46000003E-02     9.03405875E-25
  -1.45899998E-02     9.04971567E-25
  -1.45800002E-02     9.07215580E-25
  -1.45699997E-02     9.09939024E-25
  -1.45600000E-02     9.12891435E-25
  -1.45500004E-02     9.15799274E-25
  -1.45399999E-02     9.18397092E-25
  -1.45300003E-02     9.20457301E-25
  -1.45199997E-02     9.21816212E-25
  -1.45100001E-02     9.22392081E-25
  -1.44999996E-02     9.22192795E-25
  -1.44900000E-02     9.21312919E-25
  -1.44800004E-02     9.19919692E-25
  -1.44699998E-02     9.18230347E-25
  -1.44600002E-02     9.16483217E-25
  -1.44499997E-02     9.14906974E-25
  -1.44400001E-02     9.13690847E-25
  -1.44300004E-02     9.12960065E-25
  -1.44199999E-02     9.12760977E-25
  -1.44100003E-02     9.13055320E-25
  -1.43999998E-02     9.13725951E-25
  -1.43900001E-02     9.14592416E-25
  -1.43799996E-02     9.15435215E-25
  -1.43700000E-02     9.16024790E-25
  -1.43600004E-02     9.16152191E-25
  -1.43499998E-02     9.15656491E-25
  -1.43400002E-02     9.14446871E-25
  -1.43299997E-02     9.12515641E-25
  -1.43200001E-02     9.09942278E-25
  -1.43100005E-02     9.06886330E-25
  -1.42999999E-02     9.03570944E-25
  -1.42900003E-02     9.00259306E-25
  -1.42799998E-02     8.97226925E-25
  -1.42700002E-02     8.94730673E-25
  -1.42599996E-02     8.92981473E-25
  -1.42500000E-02     8.92120530E-25
  -1.42400004E-02     8.92203459E-25
  -1.42299999E-02     8.93195156E-25
  -1.42200002E-02     8.94972558E-25
  -1.42099997E-02     8.97339042E-25
  -1.42000001E-02     9.00046117E-25
  -1.41899996E-02     9.02822020E-25
  -1.41799999E-02     9.05402679E-25
  -1.41700003E-02     9.07563172E-25
  -1.41599998E-02     9.09143556E-25
  -1.41500002E-02     9.10069186E-25
  -1.41399996E-02     9.10359881E-25
  -1.41300000E-02     9.10127759E-25
  -1.41200004E-02     9.09564710E-25
  -1.41099999E-02     9.08916956E-25
  -1.41000003E-02     9.08455275E-25
  -1.40899997E-02     9.08439104E-25
  -1.40800001E-02     9.09081729E-25
  -1.40699996E-02     9.10520513E-25
  -1.40600000E-02     9.12794109E-25
  -1.40500003E-02     9.15832505E-25
  -1.40399998E-02     9.19460279E-25
  -1.40300002E-02     9.23412078E-25
  -1.40199997E-02     9.27361412E-25
  -1.40100000E-02     9.30957335E-25
  -1.40000004E-02     9.33866654E-25
  -1.39899999E-02     9.35814648E-25
  -1.39800003E-02     9.36620666E-25
  -1.39699997E-02     9.36222588E-25
  -1.39600001E-02     9.34687464E-25
  -1.39499996E-02     9.32206694E-25
  -1.39400000E-02     9.29074719E-25
  -1.39300004E-02     9.25654415E-25
  -1.39199998E-02     9.22332522E-25
  -1.39100002E-02     9.19470337E-25