  -2.19999999E-02     1.00000002E-24
  -2.19899993E-02     1.00000002E-24
  -2.19800007E-02     1.00000002E-24
  -2.19700001E-02     1.00000012E-24
  -2.19599996E-02     1.00000022E-24
  -2.19500009E-02     1.00000022E-24
  -2.19400004E-02     1.00000022E-24
  -2.19299998E-02     1.00000022E-24
  -2.19199993E-02     1.00000022E-24
  -2.19100006E-02     1.00000022E-24
  -2.19000001E-02     1.00000022E-24
  -2.18899995E-02     1.00000022E-24
  -2.18800008E-02     1.00000022E-24
  -2.18700003E-02     1.00000022E-24
  -2.18599997E-02     1.00000022E-24
  -2.18499992E-02     1.00000012E-24
  -2.18400005E-02     1.00000002E-24
  -2.18300000E-02     9.99999822E-25
  -2.18199994E-02     9.99999724E-25
  -2.18100008E-02     9.99999822E-25
  -2.18000002E-02     1.00000002E-24
  -2.17899997E-02     1.00000022E-24
  -2.17799991E-02     1.00000051E-24
  -2.17700005E-02     1.00000071E-24
  -2.17599999E-02     1.00000071E-24
  -2.17499994E-02     1.00000051E-24
  -2.17400007E-02     1.00000022E-24
  -2.17300002E-02     9.99999921E-25
  -2.17199996E-02     9.99999724E-25
  -2.17099991E-02     9.99999822E-25
  -2.17000004E-02     1.00000032E-24
  -2.16899998E-02     1.00000140E-24
  -2.16799993E-02     1.00000288E-24
  -2.16700006E-02     1.00000436E-24
  -2.16600001E-02     1.00000515E-24
  -2.16499995E-02     1.00000465E-24
  -2.16400009E-02     1.00000239E-24
  -2.16300003E-02     9.99998047E-25
  -2.16199998E-02     9.99992131E-25
  -2.16099992E-02     9.99985919E-25
  -2.16000006E-02     9.99980988E-25
  -2.15900000E-02     9.99979213E-25
  -2.15799995E-02     9.99982467E-25
  -2.15700008E-02     9.99991737E-25
  -2.15600003E-02     1.00000663E-24
  -2.15499997E-02     1.00002526E-24
  -2.15399992E-02     1.00004390E-24
  -2.15300005E-02     1.00005770E-24
  -2.15200000E-02     1.00006125E-24
  -2.15099994E-02     1.00004962E-24
  -2.15000007E-02     1.00001984E-24
  -2.14900002E-02     9.99972114E-25
  -2.14799996E-02     9.99910780E-25
  -2.14699991E-02     9.99843924E-25
  -2.14600004E-02     9.99783280E-25
  -2.14499999E-02     9.99742358E-25
  -2.14399993E-02     9.99734272E-25
  -2.14300007E-02     9.99769376E-25
  -2.14200001E-02     9.99852897E-25
  -2.14099996E-02     9.99982369E-25
  -2.14000009E-02     1.00014714E-24
  -2.13900004E-02     1.00032819E-24
  -2.13799998E-02     1.00050035E-24
  -2.13699993E-02     1.00063476E-24
  -2.13600006E-02     1.00070349E-24
  -2.13500001E-02     1.00068367E-24
  -2.13399995E-02     1.00056129E-24
  -2.13300008E-02     1.00033420E-24
  -2.13200003E-02     1.00001284E-24
  -2.13099997E-02     9.99620380E-25
  -2.12999992E-02     9.99188972E-25
  -2.12900005E-02     9.98755394E-25
  -2.12800000E-02     9.98355639E-25
  -2.12699994E-02     9.98018302E-25
  -2.12600008E-02     9.97759556E-25
  -2.12500002E-02     9.97579104E-25
  -2.12399997E-02     9.97458803E-25
  -2.12299991E-02     9.97364139E-25
  -2.12200005E-02     9.97247684E-25
  -2.12099999E-02     9.97055892E-25
  -2.11999994E-02     9.96737192E-25
  -2.11900007E-02     9.96250465E-25
  -2.11800002E-02     9.95572636E-25
  -2.11699996E-02     9.94704396E-25
  -2.11599991E-02     9.93673750E-25
  -2.11500004E-02     9.92535127E-25
  -2.11399999E-02     9.91364063E-25
  -2.11299993E-02     9.90250093E-25
  -2.11200006E-02     9.89284823E-25
  -2.11100001E-02     9.88551084E-25
  -2.10999995E-02     9.88110702E-25
  -2.10900009E-02     9.87994444E-25
  -2.10800003E-02     9.88197083E-25
  -2.10699998E-02     9.88675527E-25
  -2.10599992E-02     9.89353553E-25
  -2.10500006E-02     9.90129792E-25
  -2.10400000E-02     9.90891832E-25
  -2.10299995E-02     9.91529527E-25
  -2.10200008E-02     9.91951765E-25
  -2.10100003E-02     9.92099282E-25
  -2.09999997E-02     9.91954131E-25
  -2.09899992E-02     9.91544515E-25
  -2.09800005E-02     9.90942713E-25
  -2.09700000E-02     9.90256503E-25
  -2.09599994E-02     9.89617131E-25
  -2.09500007E-02     9.89162254E-25
  -2.09400002E-02     9.89018583E-25
  -2.09299996E-02     9.89285316E-25
  -2.09199991E-02     9.90021126E-25
  -2.09100004E-02     9.91236169E-25
  -2.08999999E-02     9.92889720E-25
  -2.08899993E-02     9.94895005E-25
  -2.08800007E-02     9.97129552E-25
  -2.08700001E-02     9.99449690E-25
  -2.08599996E-02     1.00170909E-24
  -2.08500009E-02     1.00377610E-24
  -2.08400004E-02     1.00555054E-24
  -2.08299998E-02     1.00697562E-24
  -2.08199993E-02     1.00804443E-24
  -2.08100006E-02     1.00880045E-24
  -2.08000001E-02     1.00932998E-24
  -2.07899995E-02     1.00975034E-24
  -2.07800008E-02     1.01019329E-24
  -2.07700003E-02     1.01078680E-24
  -2.07599998E-02     1.01163572E-24
  -2.07499992E-02     1.01280668E-24
  -2.07400005E-02     1.01431715E-24
  -2.07300000E-02     1.01613065E-24
  -2.07199994E-02     1.01815989E-24
  -2.07100008E-02     1.02027601E-24
  -2.07000002E-02     1.02232340E-24
  -2.06899997E-02     1.02413906E-24
  -2.06799991E-02     1.02557154E-24
  -2.06700005E-02     1.02649973E-24
  -2.06599999E-02     1.02684722E-24
  -2.06499994E-02     1.02659015E-24
  -2.06400007E-02     1.02575958E-24
  -2.06300002E-02     1.02443577E-24
  -2.06199996E-02     1.02273696E-24
  -2.06099991E-02     1.02080297E-24
  -2.06000004E-02     1.01877718E-24
  -2.05899999E-02     1.01678718E-24
  -2.05799993E-02     1.01492980E-24
  -2.05700006E-02     1.01325910E-24
  -2.05600001E-02     1.01178195E-24
  -2.05499995E-02     1.01045913E-24
  -2.05400009E-02     1.00921253E-24
  -2.05300003E-02     1.00793833E-24
  -2.05199998E-02     1.00652203E-24
  -2.05099992E-02     1.00485644E-24
  -2.05000006E-02     1.00285619E-24
  -2.04900000E-02     1.00047127E-24
  -2.04799995E-02     9.97694672E-25
  -2.04700008E-02     9.94564867E-25
  -2.04600003E-02     9.91161918E-25
  -2.04499997E-02     9.87598732E-25
  -2.04399992E-02     9.84008034E-25
  -2.04300005E-02     9.80527678E-25
  -2.04200000E-02     9.77285559E-25
  -2.04099994E-02     9.74386692E-25
  -2.04000007E-02     9.71903555E-25
  -2.03900002E-02     9.69871548E-25
  -2.03799997E-02     9.68288797E-25
  -2.03699991E-02     9.67120987E-25
  -2.03600004E-02     9.66310038E-25
  -2.03499999E-02     9.65784262E-25
  -2.03399993E-02     9.65470099E-25
  -2.03300007E-02     9.65302367E-25
  -2.03200001E-02     9.65232849E-25
  -2.03099996E-02     9.65234525E-25
  -2.03000009E-02     9.65302367E-25
  -2.02900004E-02     9.65451462E-25
  -2.02799998E-02     9.65711687E-25
  -2.02699993E-02     9.66121402E-25
  -2.02600006E-02     9.66719556E-25
  -2.02500001E-02     9.67540464E-25
  -2.02399995E-02     9.68607694E-25
  -2.02300008E-02     9.69931304E-25
  -2.02200003E-02     9.71506364E-25
  -2.02099998E-02     9.73313151E-25
  -2.01999992E-02     9.75319717E-25
  -2.01900005E-02     9.77484746E-25
  -2.01800000E-02     9.79760413E-25
  -2.01699995E-02     9.82096525E-25
  -2.01600008E-02     9.84442401E-25
  -2.01500002E-02     9.86750213E-25
  -2.01399997E-02     9.88975787E-25
  -2.01299991E-02     9.91080073E-25
  -2.01200005E-02     9.93030926E-25
  -2.01099999E-02     9.94803398E-25
  -2.00999994E-02     9.96381120E-25
  -2.00900007E-02     9.97756795E-25
  -2.00800002E-02     9.98932789E-25
  -2.00699996E-02     9.99920443E-25
  -2.00599991E-02     1.00073948E-24
  -2.00500004E-02     1.00141642E-24
  -2.00399999E-02     1.00198154E-24
  -2.00299993E-02     1.00246639E-24
  -2.00200006E-02     1.00289997E-24
  -2.00100001E-02     1.00330446E-24
  -1.99999996E-02     1.00369189E-24
  -1.99900009E-02     1.00406117E-24
  -1.99800003E-02     1.00439782E-24
  -1.99699998E-02     1.00467471E-24
  -1.99599992E-02     1.00485428E-24
  -1.99500006E-02     1.00489441E-24
  -1.99400000E-02     1.00475389E-24
  -1.99299995E-02     1.00439851E-24
  -1.99200008E-02     1.00380756E-24
  -1.99100003E-02     1.00297817E-24
  -1.98999997E-02     1.00192740E-24
  -1.98899992E-02     1.00069303E-24
  -1.98800005E-02     9.99329586E-25
  -1.98700000E-02     9.97903720E-25
  -1.98599994E-02     9.96485940E-25
  -1.98500007E-02     9.95142017E-25
  -1.98400002E-02     9.93924311E-25
  -1.98299997E-02     9.92865463E-25
  -1.98199991E-02     9.91973458E-25
  -1.98100004E-02     9.91231042E-25
  -1.97999999E-02     9.90597784E-25
  -1.97899994E-02     9.90015900E-25
  -1.97800007E-02     9.89418141E-25
  -1.97700001E-02     9.88736664E-25
  -1.97599996E-02     9.87913389E-25
  -1.97500009E-02     9.86907887E-25
  -1.97400004E-02     9.85703493E-25
  -1.97299998E-02     9.84310957E-25
  -1.97199993E-02     9.82767452E-25
  -1.97100006E-02     9.81132636E-25
  -1.97000001E-02     9.79481254E-25
  -1.96899995E-02     9.77893672E-25
  -1.96800008E-02     9.76445816E-25
  -1.96700003E-02     9.75199120E-25
  -1.96599998E-02     9.74193322E-25
  -1.96499992E-02     9.73440651E-25
  -1.96400005E-02     9.72925229E-25
  -1.96300000E-02     9.72605543E-25
  -1.96199995E-02     9.72420456E-25
  -1.96100008E-02     9.72298380E-25
  -1.96000002E-02     9.72167824E-25
  -1.95899997E-02     9.71968636E-25
  -1.95799991E-02     9.71661276E-25
  -1.95700005E-02     9.71234108E-25
  -1.95599999E-02     9.70705670E-25
  -1.95499994E-02     9.70122406E-25
  -1.95400007E-02     9.69553440E-25
  -1.95300002E-02     9.69080321E-25
  -1.95199996E-02     9.68785188E-25
  -1.95099991E-02     9.68739237E-25
  -1.95000004E-02     9.68991179E-25
  -1.94899999E-02     9.69559258E-25
  -1.94799993E-02     9.70427498E-25
  -1.94700006E-02     9.71546201E-25
  -1.94600001E-02     9.72837369E-25
  -1.94499996E-02     9.74205353E-25
  -1.94400009E-02     9.75548881E-25
  -1.94300003E-02     9.76775363E-25
  -1.94199998E-02     9.77813602E-25
  -1.94099993E-02     9.78624453E-25
  -1.94000006E-02     9.79206139E-25
  -1.93900000E-02     9.79595146E-25
  -1.93799995E-02     9.79860992E-25
  -1.93700008E-02     9.80096270E-25
  -1.93600003E-02     9.80403433E-25
  -1.93499997E-02     9.80879313E-25
  -1.93399992E-02     9.81599740E-25
  -1.93300005E-02     9.82607609E-25
  -1.93200000E-02     9.83903904E-25
  -1.93099994E-02     9.85445536E-25
  -1.93000007E-02     9.87149377E-25
  -1.92900002E-02     9.88902522E-25
  -1.92799997E-02     9.90575991E-25
  -1.92699991E-02     9.92043174E-25
  -1.92600004E-02     9.93196489E-25
  -1.92499999E-02     9.93962768E-25
  -1.92399994E-02     9.94313812E-25
  -1.92300007E-02     9.94270720E-25
  -1.92200001E-02     9.93900843E-25
  -1.92099996E-02     9.93308803E-25
  -1.92000009E-02     9.92621015E-25
  -1.91900004E-02     9.91967443E-25
  -1.91799998E-02     9.91461685E-25
  -1.91699993E-02     9.91183020E-25
  -1.91600006E-02     9.91164284E-25
  -1.91500001E-02     9.91385067E-25
  -1.91399995E-02     9.91774074E-25
  -1.91300008E-02     9.92217709E-25
  -1.91200003E-02     9.92576838E-25
  -1.91099998E-02     9.92706803E-25
  -1.90999992E-02     9.92478724E-25
  -1.90900005E-02     9.91799613E-25
  -1.90800000E-02     9.90628056E-25
  -1.90699995E-02     9.88982985E-25
  -1.90600008E-02     9.86944372E-25
  -1.90500002E-02     9.84645729E-25
  -1.90399997E-02     9.82258834E-25
  -1.90299992E-02     9.79972912E-25
  -1.90200005E-02     9.77971572E-25
  -1.90099999E-02     9.76409824E-25
  -1.89999994E-02     9.75394856E-25
  -1.89900007E-02     9.74973802E-25
  -1.89800002E-02     9.75128320E-25
  -1.89699996E-02     9.75778045E-25
  -1.89599991E-02     9.76792816E-25
  -1.89500004E-02     9.78009832E-25
  -1.89399999E-02     9.79255837E-25
  -1.89299993E-02     9.80370399E-25
  -1.89200006E-02     9.81227102E-25
  -1.89100001E-02     9.81749624E-25
  -1.88999996E-02     9.81921103E-25
  -1.88900009E-02     9.81785714E-25
  -1.88800003E-02     9.81441278E-25
  -1.88699998E-02     9.81024661E-25
  -1.88599993E-02     9.80692550E-25
  -1.88500006E-02     9.80597986E-25
  -1.88400000E-02     9.80869452E-25
  -1.88299995E-02     9.81592049E-25
  -1.88200008E-02     9.82794273E-25
  -1.88100003E-02     9.84442203E-25
  -1.87999997E-02     9.86442163E-25
  -1.87899992E-02     9.88650776E-25
  -1.87800005E-02     9.90891043E-25
  -1.87700000E-02     9.92973635E-25
  -1.87599994E-02     9.94719089E-25
  -1.87500007E-02     9.95979689E-25
  -1.87400002E-02     9.96656630E-25
  -1.87299997E-02     9.96711850E-25
  -1.87199991E-02     9.96173058E-25
  -1.87100004E-02     9.95130085E-25
  -1.86999999E-02     9.93725519E-25
  -1.86899994E-02     9.92138725E-25
  -1.86800007E-02     9.90565342E-25
  -1.86700001E-02     9.89195978E-25
  -1.86599996E-02     9.88194716E-25
  -1.86500009E-02     9.87680576E-25
  -1.86400004E-02     9.87714300E-25
  -1.86299998E-02     9.88290760E-25
  -1.86199993E-02     9.89339156E-25
  -1.86100006E-02     9.90730608E-25
  -1.86000001E-02     9.92291271E-25
  -1.85899995E-02     9.93821760E-25
  -1.85800008E-02     9.95117957E-25
  -1.85700003E-02     9.95993198E-25
  -1.85599998E-02     9.96299374E-25
  -1.85499992E-02     9.95942513E-25
  -1.85400005E-02     9.94894808E-25
  -1.85300000E-02     9.93197278E-25
  -1.85199995E-02     9.90956420E-25
  -1.85100008E-02     9.88333556E-25
  -1.85000002E-02     9.85527282E-25
  -1.84899997E-02     9.82752365E-25
  -1.84799992E-02     9.80217459E-25
  -1.84700005E-02     9.78102523E-25
  -1.84599999E-02     9.76540085E-25
  -1.84499994E-02     9.75601143E-25
  -1.84400007E-02     9.75287966E-25
  -1.84300002E-02     9.75535175E-25
  -1.84199996E-02     9.76216948E-25
  -1.84099991E-02     9.77162792E-25
  -1.84000004E-02     9.78177464E-25
  -1.83899999E-02     9.79064341E-25
  -1.83799993E-02     9.79649775E-25
  -1.83700006E-02     9.79804096E-25
  -1.83600001E-02     9.79459166E-25
  -1.83499996E-02     9.78618241E-25
  -1.83400009E-02     9.77357739E-25
  -1.83300003E-02     9.75820052E-25
  -1.83199998E-02     9.74199042E-25
  -1.83099993E-02     9.72718251E-25
  -1.83000006E-02     9.71604478E-25
  -1.82900000E-02     9.71060756E-25
  -1.82799995E-02     9.71239827E-25
  -1.82700008E-02     9.72223044E-25
  -1.82600003E-02     9.74006264E-25
  -1.82499997E-02     9.76496698E-25
  -1.82399992E-02     9.79518331E-25
  -1.82300005E-02     9.82828687E-25
  -1.82200000E-02     9.86143678E-25
  -1.82099994E-02     9.89168466E-25
  -1.82000007E-02     9.91630403E-25
  -1.81900002E-02     9.93310479E-25
  -1.81799997E-02     9.94070152E-25
  -1.81699991E-02     9.93868401E-25
  -1.81600004E-02     9.92769123E-25
  -1.81499999E-02     9.90934529E-25
  -1.81399994E-02     9.88608276E-25
  -1.81300007E-02     9.86087866E-25
  -1.81200001E-02     9.83689926E-25
  -1.81099996E-02     9.81712942E-25
  -1.81000009E-02     9.80401756E-25
  -1.80900004E-02     9.79918185E-25
  -1.80799998E-02     9.80320109E-25
  -1.80699993E-02     9.81554479E-25
  -1.80600006E-02     9.83462241E-25
  -1.80500001E-02     9.85797171E-25
  -1.80399995E-02     9.88255261E-25
  -1.80300009E-02     9.90511995E-25
  -1.80200003E-02     9.92262182E-25
  -1.80099998E-02     9.93258710E-25
  -1.79999992E-02     9.93344006E-25
  -1.79900005E-02     9.92471920E-25
  -1.79800000E-02     9.90714634E-25
  -1.79699995E-02     9.88256346E-25
  -1.79600008E-02     9.85371580E-25
  -1.79500002E-02     9.82392546E-25
  -1.79399997E-02     9.79667721E-25
  -1.79299992E-02     9.77517582E-25
  -1.79200005E-02     9.76192986E-25
  -1.79099999E-02     9.75841253E-25
  -1.78999994E-02     9.76484569E-25
  -1.78900007E-02     9.78014072E-25
  -1.78800002E-02     9.80199709E-25
  -1.78699996E-02     9.82716472E-25
  -1.78599991E-02     9.85182747E-25
  -1.78500004E-02     9.87206372E-25
  -1.78399999E-02     9.88433051E-25
  -1.78299993E-02     9.88590724E-25
  -1.78200006E-02     9.87524776E-25
  -1.78100001E-02     9.85219330E-25
  -1.77999996E-02     9.81801097E-25
  -1.77900009E-02     9.77526556E-25
  -1.77800003E-02     9.72752665E-25
  -1.77699998E-02     9.67895156E-25
  -1.77599993E-02     9.63379420E-25
  -1.77500006E-02     9.59590521E-25
  -1.77400000E-02     9.56827141E-25
  -1.77299995E-02     9.55266577E-25
  -1.77200008E-02     9.54945116E-25
  -1.77100003E-02     9.55754586E-25
  -1.76999997E-02     9.57456850E-25
  -1.76899992E-02     9.59714668E-25
  -1.76800005E-02     9.62134597E-25
  -1.76700000E-02     9.64316291E-25
  -1.76599994E-02     9.65901704E-25
  -1.76500008E-02     9.66619370E-25
  -1.76400002E-02     9.66317138E-25
  -1.76299997E-02     9.64978540E-25
  -1.76199991E-02     9.62723975E-25
  -1.76100004E-02     9.59792469E-25
  -1.75999999E-02     9.56510611E-25
  -1.75899994E-02     9.53250545E-25
  -1.75800007E-02     9.50381951E-25
  -1.75700001E-02     9.48227078E-25
  -1.75599996E-02     9.47020614E-25
  -1.75500009E-02     9.46881873E-25
  -1.75400004E-02     9.47802375E-25
  -1.75299998E-02     9.49649296E-25
  -1.75199993E-02     9.52183610E-25
  -1.75100006E-02     9.55091943E-25
  -1.75000001E-02     9.58026013E-25
  -1.74899995E-02     9.60646017E-25
  -1.74800009E-02     9.62660669E-25
  -1.74700003E-02     9.63861808E-25
  -1.74599998E-02     9.64146587E-25
  -1.74499992E-02     9.63527726E-25
  -1.74400005E-02     9.62128484E-25
  -1.74300000E-02     9.60164910E-25
  -1.74199995E-02     9.57917347E-25
  -1.74100008E-02     9.55695225E-25
  -1.74000002E-02     9.53800085E-25
  -1.73899997E-02     9.52490083E-25
  -1.73799992E-02     9.51951981E-25
  -1.73700005E-02     9.52281330E-25
  -1.73599999E-02     9.53475074E-25
  -1.73499994E-02     9.55434802E-25
  -1.73400007E-02     9.57980752E-25
  -1.73300002E-02     9.60873801E-25
  -1.73199996E-02     9.63843270E-25
  -1.73099991E-02     9.66617004E-25
  -1.73000004E-02     9.68949271E-25
  -1.72899999E-02     9.70646012E-25
  -1.72799993E-02     9.71581108E-25
  -1.72700007E-02     9.71706241E-25
  -1.72600001E-02     9.71051191E-25
  -1.72499996E-02     9.69716734E-25
  -1.72400009E-02     9.67859854E-25
  -1.72300003E-02     9.65675597E-25
  -1.72199998E-02     9.63373799E-25
  -1.72099993E-02     9.61157495E-25
  -1.72000006E-02     9.59201711E-25
  -1.71900000E-02     9.57636611E-25
  -1.71799995E-02     9.56536742E-25
  -1.71700008E-02     9.55915317E-25
  -1.71600003E-02     9.55727371E-25
  -1.71499997E-02     9.55876860E-25
  -1.71399992E-02     9.56229579E-25
  -1.71300005E-02     9.56630419E-25
  -1.71200000E-02     9.56920030E-25
  -1.71099994E-02     9.56953753E-25
  -1.71000008E-02     9.56616614E-25
  -1.70900002E-02     9.55836233E-25
  -1.70799997E-02     9.54591312E-25
  -1.70699991E-02     9.52914194E-25
  -1.70600004E-02     9.50888596E-25
  -1.70499999E-02     9.48642512E-25
  -1.70399994E-02     9.46335883E-25
  -1.70300007E-02     9.44146104E-25
  -1.70200001E-02     9.42250767E-25
  -1.70099996E-02     9.40811194E-25
  -1.70000009E-02     9.39955576E-25
  -1.69900004E-02     9.39765658E-25
  -1.69799998E-02     9.40267077E-25
  -1.69699993E-02     9.41423745E-25
  -1.69600006E-02     9.43139024E-25
  -1.69500001E-02     9.45262440E-25
  -1.69399995E-02     9.47601709E-25
  -1.69300009E-02     9.49940484E-25
  -1.69200003E-02     9.52057491E-25
  -1.69099998E-02     9.53748907E-25
  -1.68999992E-02     9.54847593E-25
  -1.68900006E-02     9.55242123E-25
  -1.68800000E-02     9.54888417E-25
  -1.68699995E-02     9.53816651E-25
  -1.68600008E-02     9.52129869E-25
  -1.68500002E-02     9.49994916E-25
  -1.68399997E-02     9.47625868E-25
  -1.68299992E-02     9.45261553E-25
  -1.68200005E-02     9.43139517E-25
  -1.68099999E-02     9.41468808E-25
  -1.67999994E-02     9.40406015E-25
  -1.67900007E-02     9.40036631E-25
  -1.67800002E-02     9.40363318E-25
  -1.67699996E-02     9.41304725E-25
  -1.67599991E-02     9.42704165E-25
  -1.67500004E-02     9.44347756E-25
  -1.67399999E-02     9.45991052E-25
  -1.67299993E-02     9.47389801E-25
  -1.67200007E-02     9.48332095E-25
  -1.67100001E-02     9.48668150E-25
  -1.66999996E-02     9.48331208E-25
  -1.66900009E-02     9.47349964E-25
  -1.66800003E-02     9.45847282E-25
  -1.66699998E-02     9.44026986E-25
  -1.66599993E-02     9.42149595E-25
  -1.66500006E-02     9.40499101E-25
  -1.66400000E-02     9.39347167E-25
  -1.66299995E-02     9.38915857E-25
  -1.66200008E-02     9.39346871E-25
  -1.66100003E-02     9.40681032E-25
  -1.65999997E-02     9.42848822E-25
  -1.65899992E-02     9.45676592E-25
  -1.65800005E-02     9.48906978E-25
  -1.65700000E-02     9.52229857E-25
  -1.65599994E-02     9.55321502E-25
  -1.65500008E-02     9.57885694E-25
  -1.65400002E-02     9.59692087E-25
  -1.65299997E-02     9.60604799E-25
  -1.65199991E-02     9.60600263E-25
  -1.65100005E-02     9.59769099E-25
  -1.64999999E-02     9.58302903E-25
  -1.64899994E-02     9.56467717E-25
  -1.64800007E-02     9.54567055E-25
  -1.64700001E-02     9.52900389E-25
  -1.64599996E-02     9.51722028E-25
  -1.64500009E-02     9.51205817E-25
  -1.64400004E-02     9.51422458E-25
  -1.64299998E-02     9.52330043E-25
  -1.64199993E-02     9.53781054E-25
  -1.64100006E-02     9.55543467E-25
  -1.64000001E-02     9.57333393E-25
  -1.63899995E-02     9.58854415E-25
  -1.63800009E-02     9.59839703E-25
  -1.63700003E-02     9.60087799E-25
  -1.63599998E-02     9.59491223E-25
  -1.63499992E-02     9.58051552E-25
  -1.63400006E-02     9.55878931E-25
  -1.63300000E-02     9.53177871E-25
  -1.63199995E-02     9.50220431E-25
  -1.63100008E-02     9.47309239E-25
  -1.63000003E-02     9.44739327E-25
  -1.62899997E-02     9.42759385E-25
  -1.62799992E-02     9.41541877E-25
  -1.62700005E-02     9.41161646E-25
  -1.62599999E-02     9.41589701E-25
  -1.62499994E-02     9.42698643E-25
  -1.62400007E-02     9.44281393E-25
  -1.62300002E-02     9.46079700E-25
  -1.62199996E-02     9.47817068E-25
  -1.62099991E-02     9.49233172E-25
  -1.62000004E-02     9.50115710E-25
  -1.61899999E-02     9.50322589E-25
  -1.61799993E-02     9.49796123E-25
  -1.61700007E-02     9.48565007E-25
  -1.61600001E-02     9.46736526E-25
  -1.61499996E-02     9.44479200E-25
  -1.61400009E-02     9.42000303E-25
  -1.61300004E-02     9.39520026E-25
  -1.61199998E-02     9.37246332E-25
  -1.61099993E-02     9.35353854E-25
  -1.61000006E-02     9.33967530E-25
  -1.60900000E-02     9.33153721E-25
  -1.60799995E-02     9.32918641E-25
  -1.60700008E-02     9.33213675E-25
  -1.60600003E-02     9.33945639E-25
  -1.60499997E-02     9.34991077E-25
  -1.60399992E-02     9.36212234E-25
  -1.60300005E-02     9.37472242E-25
  -1.60200000E-02     9.38648236E-25
  -1.60099994E-02     9.39642694E-25
  -1.60000008E-02     9.40389647E-25
  -1.59900002E-02     9.40857934E-25
  -1.59799997E-02     9.41051402E-25
  -1.59699991E-02     9.41004761E-25
  -1.59600005E-02     9.40779147E-25
  -1.59499999E-02     9.40455418E-25
  -1.59399994E-02     9.40126068E-25
  -1.59300007E-02     9.39887931E-25
  -1.59200002E-02     9.39835077E-25
  -1.59099996E-02     9.40051324E-25
  -1.59000009E-02     9.40603329E-25
  -1.58900004E-02     9.41534777E-25
  -1.58799998E-02     9.42860359E-25
  -1.58699993E-02     9.44562721E-25
  -1.58600006E-02     9.46590882E-25
  -1.58500001E-02     9.48860829E-25
  -1.58399995E-02     9.51259558E-25
  -1.58300009E-02     9.53653159E-25
  -1.58200003E-02     9.55896778E-25
  -1.58099998E-02     9.57847434E-25
  -1.57999992E-02     9.59378317E-25
  -1.57900006E-02     9.60392497E-25
  -1.57800000E-02     9.60835738E-25
  -1.57699995E-02     9.60704984E-25
  -1.57600008E-02     9.60052301E-25
  -1.57500003E-02     9.58982704E-25
  -1.57399997E-02     9.57645782E-25
  -1.57299992E-02     9.56222282E-25
  -1.57200005E-02     9.54905279E-25
  -1.57099999E-02     9.53878774E-25
  -1.56999994E-02     9.53296792E-25
  -1.56900007E-02     9.53263659E-25
  -1.56800002E-02     9.53819017E-25
  -1.56699996E-02     9.54929142E-25
  -1.56599991E-02     9.56486748E-25
  -1.56500004E-02     9.58319272E-25
  -1.56399999E-02     9.60205438E-25
  -1.56299993E-02     9.61898728E-25
  -1.56199997E-02     9.63155285E-25
  -1.56100001E-02     9.63762905E-25
  -1.55999996E-02     9.63567563E-25
  -1.55900000E-02     9.62495304E-25
  -1.55800004E-02     9.60564468E-25
  -1.55699998E-02     9.57887272E-25
  -1.55600002E-02     9.54661225E-25
  -1.55499997E-02     9.51149019E-25
  -1.55400001E-02     9.47650224E-25
  -1.55300004E-02     9.44466973E-25
  -1.55199999E-02     9.41868662E-25
  -1.55100003E-02     9.40060001E-25
  -1.54999997E-02     9.39154783E-25
  -1.54900001E-02     9.39162080E-25
  -1.54799996E-02     9.39983285E-25
  -1.54700000E-02     9.41424040E-25
  -1.54600004E-02     9.43217121E-25
  -1.54499998E-02     9.45056055E-25
  -1.54400002E-02     9.46633382E-25
  -1.54299997E-02     9.47680694E-25
  -1.54200001E-02     9.48004620E-25
  -1.54100005E-02     9.47513652E-25
  -1.53999999E-02     9.46233528E-25
  -1.53900003E-02     9.44306242E-25
  -1.53799998E-02     9.41974863E-25
  -1.53700002E-02     9.39554736E-25
  -1.53599996E-02     9.37393553E-25
  -1.53500000E-02     9.35827960E-25
  -1.53400004E-02     9.35138988E-25
  -1.53299998E-02     9.35514585E-25
  -1.53200002E-02     9.37022492E-25
  -1.53099997E-02     9.39600194E-25
  -1.53000001E-02     9.43058560E-25
  -1.52899995E-02     9.47104726E-25
  -1.52799999E-02     9.51376310E-25
  -1.52700003E-02     9.55486176E-25
  -1.52599998E-02     9.59069971E-25
  -1.52500002E-02     9.61831182E-25
  -1.52399996E-02     9.63576635E-25
  -1.52300000E-02     9.64239278E-25
  -1.52200004E-02     9.63883897E-25
  -1.52099999E-02     9.62695675E-25
  -1.52000003E-02     9.60953870E-25
  -1.51899997E-02     9.58992959E-25
  -1.51800001E-02     9.57157082E-25
  -1.51699996E-02     9.55754488E-25
  -1.51600000E-02     9.55017593E-25
  -1.51500003E-02     9.55073306E-25
  -1.51399998E-02     9.55929220E-25
  -1.51300002E-02     9.57476078E-25
  -1.51199996E-02     9.59507198E-25
  -1.51100000E-02     9.61750126E-25
  -1.51000004E-02     9.63906675E-25
  -1.50899999E-02     9.65696798E-25
  -1.50800003E-02     9.66897345E-25
  -1.50699997E-02     9.67373226E-25
  -1.50600001E-02     9.67094462E-25
  -1.50499996E-02     9.66138658E-25
  -1.50400000E-02     9.64678181E-25
  -1.50300004E-02     9.62953731E-25
  -1.50199998E-02     9.61240029E-25
  -1.50100002E-02     9.59806275E-25
  -1.49999997E-02     9.58878278E-25
  -1.49900001E-02     9.58608882E-25
  -1.49800004E-02     9.59057350E-25
  -1.49699999E-02     9.60183843E-25
  -1.49600003E-02     9.61855341E-25
  -1.49499997E-02     9.63865358E-25
  -1.49400001E-02     9.65962348E-25
  -1.49299996E-02     9.67883816E-25
  -1.49200000E-02     9.69390441E-25
  -1.49100004E-02     9.70296941E-25
  -1.48999998E-02     9.70495044E-25
  -1.48900002E-02     9.69965817E-25
  -1.48799997E-02     9.68779863E-25
  -1.48700001E-02     9.67085686E-25
  -1.48600005E-02     9.65087895E-25
  -1.48499999E-02     9.63018812E-25
  -1.48400003E-02     9.61107205E-25
  -1.48299998E-02     9.59547528E-25
  -1.48200002E-02     9.58474973E-25
  -1.48099996E-02     9.57948803E-25
  -1.48000000E-02     9.57946042E-25
  -1.47900004E-02     9.58366406E-25
  -1.47799999E-02     9.59047686E-25
  -1.47700002E-02     9.59788821E-25
  -1.47599997E-02     9.60379382E-25
  -1.47500001E-02     9.60628563E-25
  -1.47399995E-02     9.60393384E-25
  -1.47299999E-02     9.59599001E-25
  -1.47200003E-02     9.58250049E-25
  -1.47099998E-02     9.56433303E-25
  -1.47000002E-02     9.54308111E-25
  -1.46899996E-02     9.52087172E-25
  -1.46800000E-02     9.50011284E-25
  -1.46700004E-02     9.48318882E-25
  -1.46599999E-02     9.47216252E-25
  -1.46500003E-02     9.46850615E-25
  -1.46399997E-02     9.47289320E-25
  -1.46300001E-02     9.48510772E-25
  -1.46199996E-02     9.50404236E-25
  -1.46100000E-02     9.52782553E-25
  -1.46000003E-02     9.55402853E-25
  -1.45899998E-02     9.57995839E-25
  -1.45800002E-02     9.60297735E-25
  -1.45699997E-02     9.62082138E-25
  -1.45600000E-02     9.63187234E-25
  -1.45500004E-02     9.63535614E-25
  -1.45399999E-02     9.63143058E-25
  -1.45300003E-02     9.62116158E-25
  -1.45199997E-02     9.60638917E-25
  -1.45100001E-02     9.58949769E-25
  -1.44999996E-02     9.57311798E-25
  -1.44900000E-02     9.55980595E-25
  -1.44800004E-02     9.55173886E-25
  -1.44699998E-02     9.55046091E-25
  -1.44600002E-02     9.55671066E-25
  -1.44499997E-02     9.57034119E-25
  -1.44400001E-02     9.59035163E-25
  -1.44300004E-02     9.61501142E-25
  -1.44199999E-02     9.64206639E-25
  -1.44100003E-02     9.66898824E-25
  -1.43999998E-02     9.69326248E-25
  -1.43900001E-02     9.71264381E-25
  -1.43799996E-02     9.72538983E-25
  -1.43700000E-02     9.73042177E-25
  -1.43600004E-02     9.72741523E-25
  -1.43499998E-02     9.71680209E-25
  -1.43400002E-02     9.69970057E-25
  -1.43299997E-02     9.67778404E-25
  -1.43200001E-02     9.65309763E-25
  -1.43100005E-02     9.62784619E-25
  -1.42999999E-02     9.60418036E-25
  -1.42900003E-02     9.58399637E-25
  -1.42799998E-02     9.56877530E-25
  -1.42700002E-02     9.55945688E-25
  -1.42599996E-02     9.55637046E-25
  -1.42500000E-02     9.55923698E-25
  -1.42400004E-02     9.56721237E-25
  -1.42299999E-02     9.57899203E-25
  -1.42200002E-02     9.59294895E-25
  -1.42099997E-02     9.60729538E-25
  -1.42000001E-02     9.62027115E-25
  -1.41899996E-02     9.63032025E-25
  -1.41799999E-02     9.63625150E-25
  -1.41700003E-02     9.63736478E-25
  -1.41599998E-02     9.63352895E-25
  -1.41500002E-02     9.62520942E-25
  -1.41399996E-02     9.61342483E-25
  -1.41300000E-02     9.59965920E-25
  -1.41200004E-02     9.58570721E-25
  -1.41099999E-02     9.57349269E-25
  -1.41000003E-02     9.56485959E-25
  -1.40899997E-02     9.56136789E-25
  -1.40800001E-02     9.56410820E-25
  -1.40699996E-02     9.57356073E-25
  -1.40600000E-02     9.58951149E-25
  -1.40500003E-02     9.61104542E-25
  -1.40399998E-02     9.63661832E-25
  -1.40300002E-02     9.66419394E-25
  -1.40199997E-02     9.69144317E-25
  -1.40100000E-02     9.71598365E-25
  -1.40000004E-02     9.73563417E-25
  -1.39899999E-02     9.74864939E-25
  -1.39800003E-02     9.75391602E-25
  -1.39699997E-02     9.75108303E-25
  -1.39600001E-02     9.74061977E-25
  -1.39499996E-02     9.72377858E-25
  -1.39400000E-02     9.70247243E-25
  -1.39300004E-02     9.67907284E-25
  -1.39199998E-02     9.65616432E-25
  -1.39100002E-02     9.63627024E-25