  -2.19999999E-02     1.00000002E-24
  -2.19899993E-02     9.99999428E-25
  -2.19800007E-02     9.99998343E-25
  -2.19700001E-02     9.99997456E-25
  -2.19599996E-02     9.99996963E-25
  -2.19500009E-02     9.99996864E-25
  -2.19400004E-02     9.99996765E-25
  -2.19299998E-02     9.99996470E-25
  -2.19199993E-02     9.99995582E-25
  -2.19100006E-02     9.99994399E-25
  -2.19000001E-02     9.99993117E-25
  -2.18899995E-02     9.99992230E-25
  -2.18800008E-02     9.99991835E-25
  -2.18700003E-02     9.99991934E-25
  -2.18599997E-02     9.99992032E-25
  -2.18499992E-02     9.99991835E-25
  -2.18400005E-02     9.99991046E-25
  -2.18300000E-02     9.99989962E-25
  -2.18199994E-02     9.99988680E-25
  -2.18100008E-02     9.99987891E-25
  -2.18000002E-02     9.99987595E-25
  -2.17899997E-02     9.99987694E-25
  -2.17799991E-02     9.99987694E-25
  -2.17700005E-02     9.99987201E-25
  -2.17599999E-02     9.99986214E-25
  -2.17499994E-02     9.99985130E-25
  -2.17400007E-02     9.99984144E-25
  -2.17300002E-02     9.99983552E-25
  -2.17199996E-02     9.99983453E-25
  -2.17099991E-02     9.99983552E-25
  -2.17000004E-02     9.99983453E-25
  -2.16899998E-02     9.99982665E-25
  -2.16799993E-02     9.99981580E-25
  -2.16700006E-02     9.99980397E-25
  -2.16600001E-02     9.99979509E-25
  -2.16499995E-02     9.99979411E-25
  -2.16400009E-02     9.99979706E-25
  -2.16300003E-02     9.99980101E-25
  -2.16199998E-02     9.99980199E-25
  -2.16099992E-02     9.99979509E-25
  -2.16000006E-02     9.99978227E-25
  -2.15900000E-02     9.99976551E-25
  -2.15799995E-02     9.99974875E-25
  -2.15700008E-02     9.99973395E-25
  -2.15600003E-02     9.99971916E-25
  -2.15499997E-02     9.99970339E-25
  -2.15399992E-02     9.99968662E-25
  -2.15300005E-02     9.99967676E-25
  -2.15200000E-02     9.99968268E-25
  -2.15099994E-02     9.99971128E-25
  -2.15000007E-02     9.99976354E-25
  -2.14900002E-02     9.99982960E-25
  -2.14799996E-02     9.99989370E-25
  -2.14699991E-02     9.99993906E-25
  -2.14600004E-02     9.99994892E-25
  -2.14499999E-02     9.99991638E-25
  -2.14399993E-02     9.99983947E-25
  -2.14300007E-02     9.99972508E-25
  -2.14200001E-02     9.99958111E-25
  -2.14099996E-02     9.99942531E-25
  -2.14000009E-02     9.99927543E-25
  -2.13900004E-02     9.99915316E-25
  -2.13799998E-02     9.99908314E-25
  -2.13699993E-02     9.99908610E-25
  -2.13600006E-02     9.99917485E-25
  -2.13500001E-02     9.99934445E-25
  -2.13399995E-02     9.99957815E-25
  -2.13300008E-02     9.99984637E-25
  -2.13200003E-02     1.00001106E-24
  -2.13099997E-02     1.00003384E-24
  -2.12999992E-02     1.00005070E-24
  -2.12900005E-02     1.00006037E-24
  -2.12800000E-02     1.00006264E-24
  -2.12699994E-02     1.00005840E-24
  -2.12600008E-02     1.00004883E-24
  -2.12500002E-02     1.00003572E-24
  -2.12399997E-02     1.00002053E-24
  -2.12299991E-02     1.00000465E-24
  -2.12200005E-02     9.99988975E-25
  -2.12099999E-02     9.99973494E-25
  -2.11999994E-02     9.99957618E-25
  -2.11900007E-02     9.99939376E-25
  -2.11800002E-02     9.99916598E-25
  -2.11699996E-02     9.99886818E-25
  -2.11599991E-02     9.99848657E-25
  -2.11500004E-02     9.99801621E-25
  -2.11399999E-02     9.99747387E-25
  -2.11299993E-02     9.99689406E-25
  -2.11200006E-02     9.99633495E-25
  -2.11100001E-02     9.99587643E-25
  -2.10999995E-02     9.99562991E-25
  -2.10900009E-02     9.99572260E-25
  -2.10800003E-02     9.99631030E-25
  -2.10699998E-02     9.99756656E-25
  -2.10599992E-02     9.99967578E-25
  -2.10500006E-02     1.00028283E-24
  -2.10400000E-02     1.00072094E-24
  -2.10299995E-02     1.00129848E-24
  -2.10200008E-02     1.00202917E-24
  -2.10100003E-02     1.00292413E-24
  -2.09999997E-02     1.00398988E-24
  -2.09899992E-02     1.00522849E-24
  -2.09800005E-02     1.00663809E-24
  -2.09700000E-02     1.00821127E-24
  -2.09599994E-02     1.00993592E-24
  -2.09500007E-02     1.01179507E-24
  -2.09400002E-02     1.01376712E-24
  -2.09299996E-02     1.01582674E-24
  -2.09199991E-02     1.01794532E-24
  -2.09100004E-02     1.02009241E-24
  -2.08999999E-02     1.02223653E-24
  -2.08899993E-02     1.02434594E-24
  -2.08800007E-02     1.02639038E-24
  -2.08700001E-02     1.02834192E-24
  -2.08599996E-02     1.03017632E-24
  -2.08500009E-02     1.03187394E-24
  -2.08400004E-02     1.03342080E-24
  -2.08299998E-02     1.03480821E-24
  -2.08199993E-02     1.03603341E-24
  -2.08100006E-02     1.03709827E-24
  -2.08000001E-02     1.03800911E-24
  -2.07899995E-02     1.03877520E-24
  -2.07800008E-02     1.03940835E-24
  -2.07700003E-02     1.03992200E-24
  -2.07599998E-02     1.04033083E-24
  -2.07499992E-02     1.04064913E-24
  -2.07400005E-02     1.04089043E-24
  -2.07300000E-02     1.04106624E-24
  -2.07199994E-02     1.04118664E-24
  -2.07100008E-02     1.04125932E-24
  -2.07000002E-02     1.04128939E-24
  -2.06899997E-02     1.04127963E-24
  -2.06799991E-02     1.04123013E-24
  -2.06700005E-02     1.04113852E-24
  -2.06599999E-02     1.04100018E-24
  -2.06499994E-02     1.04080937E-24
  -2.06400007E-02     1.04055950E-24
  -2.06300002E-02     1.04024484E-24
  -2.06199996E-02     1.03986077E-24
  -2.06099991E-02     1.03940500E-24
  -2.06000004E-02     1.03887804E-24
  -2.05899999E-02     1.03828334E-24
  -2.05799993E-02     1.03762780E-24
  -2.05700006E-02     1.03692118E-24
  -2.05600001E-02     1.03617629E-24
  -2.05499995E-02     1.03540844E-24
  -2.05400009E-02     1.03463476E-24
  -2.05300003E-02     1.03387420E-24
  -2.05199998E-02     1.03314618E-24
  -2.05099992E-02     1.03247042E-24
  -2.05000006E-02     1.03186645E-24
  -2.04900000E-02     1.03135231E-24
  -2.04799995E-02     1.03094486E-24
  -2.04700008E-02     1.03065880E-24
  -2.04600003E-02     1.03050655E-24
  -2.04499997E-02     1.03049718E-24
  -2.04399992E-02     1.03063652E-24
  -2.04300005E-02     1.03092593E-24
  -2.04200000E-02     1.03136286E-24
  -2.04099994E-02     1.03194100E-24
  -2.04000007E-02     1.03265028E-24
  -2.03900002E-02     1.03347819E-24
  -2.03799997E-02     1.03441013E-24
  -2.03699991E-02     1.03543013E-24
  -2.03600004E-02     1.03652191E-24
  -2.03499999E-02     1.03766872E-24
  -2.03399993E-02     1.03885457E-24
  -2.03300007E-02     1.04006360E-24
  -2.03200001E-02     1.04128101E-24
  -2.03099996E-02     1.04249280E-24
  -2.03000009E-02     1.04368654E-24
  -2.02900004E-02     1.04485100E-24
  -2.02799998E-02     1.04597611E-24
  -2.02699993E-02     1.04705380E-24
  -2.02600006E-02     1.04807734E-24
  -2.02500001E-02     1.04904212E-24
  -2.02399995E-02     1.04994527E-24
  -2.02300008E-02     1.05078570E-24
  -2.02200003E-02     1.05156322E-24
  -2.02099998E-02     1.05227842E-24
  -2.01999992E-02     1.05293111E-24
  -2.01900005E-02     1.05352058E-24
  -2.01800000E-02     1.05404449E-24
  -2.01699995E-02     1.05449907E-24
  -2.01600008E-02     1.05487900E-24
  -2.01500002E-02     1.05517837E-24
  -2.01399997E-02     1.05539028E-24
  -2.01299991E-02     1.05550822E-24
  -2.01200005E-02     1.05552557E-24
  -2.01099999E-02     1.05543613E-24
  -2.00999994E-02     1.05523429E-24
  -2.00900007E-02     1.05491499E-24
  -2.00800002E-02     1.05447451E-24
  -2.00699996E-02     1.05390979E-24
  -2.00599991E-02     1.05321963E-24
  -2.00500004E-02     1.05240405E-24
  -2.00399999E-02     1.05146511E-24
  -2.00299993E-02     1.05040734E-24
  -2.00200006E-02     1.04923815E-24
  -2.00100001E-02     1.04796730E-24
  -1.99999996E-02     1.04660720E-24
  -1.99900009E-02     1.04517256E-24
  -1.99800003E-02     1.04367945E-24
  -1.99699998E-02     1.04214363E-24
  -1.99599992E-02     1.04058050E-24
  -1.99500006E-02     1.03900397E-24
  -1.99400000E-02     1.03742634E-24
  -1.99299995E-02     1.03585838E-24
  -1.99200008E-02     1.03430985E-24
  -1.99100003E-02     1.03278942E-24
  -1.98999997E-02     1.03130429E-24
  -1.98899992E-02     1.02986097E-24
  -1.98800005E-02     1.02846399E-24
  -1.98700000E-02     1.02711682E-24
  -1.98599994E-02     1.02582200E-24
  -1.98500007E-02     1.02458142E-24
  -1.98400002E-02     1.02339734E-24
  -1.98299997E-02     1.02227272E-24
  -1.98199991E-02     1.02121150E-24
  -1.98100004E-02     1.02021882E-24
  -1.97999999E-02     1.01930167E-24
  -1.97899994E-02     1.01846893E-24
  -1.97800007E-02     1.01773095E-24
  -1.97700001E-02     1.01709917E-24
  -1.97599996E-02     1.01658464E-24
  -1.97500009E-02     1.01619632E-24
  -1.97400004E-02     1.01594014E-24
  -1.97299998E-02     1.01581757E-24
  -1.97199993E-02     1.01582595E-24
  -1.97100006E-02     1.01595917E-24
  -1.97000001E-02     1.01620835E-24
  -1.96899995E-02     1.01656265E-24
  -1.96800008E-02     1.01701013E-24
  -1.96700003E-02     1.01753876E-24
  -1.96599998E-02     1.01813593E-24
  -1.96499992E-02     1.01878980E-24
  -1.96400005E-02     1.01948843E-24
  -1.96300000E-02     1.02022089E-24
  -1.96199995E-02     1.02097682E-24
  -1.96100008E-02     1.02174704E-24
  -1.96000002E-02     1.02252367E-24
  -1.95899997E-02     1.02329972E-24
  -1.95799991E-02     1.02406876E-24
  -1.95700005E-02     1.02482547E-24
  -1.95599999E-02     1.02556513E-24
  -1.95499994E-02     1.02628378E-24
  -1.95400007E-02     1.02697739E-24
  -1.95300002E-02     1.02764171E-24
  -1.95199996E-02     1.02827092E-24
  -1.95099991E-02     1.02885823E-24
  -1.95000004E-02     1.02939574E-24
  -1.94899999E-02     1.02987645E-24
  -1.94799993E-02     1.03029356E-24
  -1.94700006E-02     1.03064214E-24
  -1.94600001E-02     1.03091972E-24
  -1.94499996E-02     1.03112551E-24
  -1.94400009E-02     1.03126011E-24
  -1.94300003E-02     1.03132440E-24
  -1.94199998E-02     1.03131878E-24
  -1.94099993E-02     1.03124266E-24
  -1.94000006E-02     1.03109386E-24
  -1.93900000E-02     1.03086864E-24
  -1.93799995E-02     1.03056177E-24
  -1.93700008E-02     1.03016695E-24
  -1.93600003E-02     1.02967677E-24
  -1.93499997E-02     1.02908414E-24
  -1.93399992E-02     1.02838254E-24
  -1.93300005E-02     1.02756676E-24
  -1.93200000E-02     1.02663364E-24
  -1.93099994E-02     1.02558209E-24
  -1.93000007E-02     1.02441339E-24
  -1.92900002E-02     1.02313080E-24
  -1.92799997E-02     1.02174112E-24
  -1.92699991E-02     1.02025412E-24
  -1.92600004E-02     1.01868360E-24
  -1.92499999E-02     1.01704661E-24
  -1.92399994E-02     1.01536240E-24
  -1.92300007E-02     1.01365214E-24
  -1.92200001E-02     1.01193657E-24
  -1.92099996E-02     1.01023490E-24
  -1.92000009E-02     1.00856310E-24
  -1.91900004E-02     1.00693421E-24
  -1.91799998E-02     1.00535855E-24
  -1.91699993E-02     1.00384443E-24
  -1.91600006E-02     1.00239954E-24
  -1.91500001E-02     1.00103146E-24
  -1.91399995E-02     9.99749556E-25
  -1.91300008E-02     9.98565180E-25
  -1.91200003E-02     9.97491935E-25
  -1.91099998E-02     9.96545400E-25
  -1.90999992E-02     9.95741650E-25
  -1.90900005E-02     9.95095967E-25
  -1.90800000E-02     9.94621960E-25
  -1.90699995E-02     9.94330378E-25
  -1.90600008E-02     9.94229305E-25
  -1.90500002E-02     9.94324954E-25
  -1.90399997E-02     9.94621467E-25
  -1.90299992E-02     9.95122295E-25
  -1.90200005E-02     9.95829706E-25
  -1.90099999E-02     9.96743898E-25
  -1.89999994E-02     9.97862502E-25
  -1.89900007E-02     9.99179013E-25
  -1.89800002E-02     1.00068248E-24
  -1.89699996E-02     1.00235674E-24
  -1.89599991E-02     1.00418088E-24
  -1.89500004E-02     1.00612996E-24
  -1.89399999E-02     1.00817646E-24
  -1.89299993E-02     1.01029160E-24
  -1.89200006E-02     1.01244736E-24
  -1.89100001E-02     1.01461751E-24
  -1.88999996E-02     1.01677958E-24
  -1.88900009E-02     1.01891444E-24
  -1.88800003E-02     1.02100620E-24
  -1.88699998E-02     1.02304107E-24
  -1.88599993E-02     1.02500632E-24
  -1.88500006E-02     1.02688933E-24
  -1.88400000E-02     1.02867856E-24
  -1.88299995E-02     1.03036367E-24
  -1.88200008E-02     1.03193695E-24
  -1.88100003E-02     1.03339349E-24
  -1.87999997E-02     1.03473179E-24
  -1.87899992E-02     1.03595364E-24
  -1.87800005E-02     1.03706268E-24
  -1.87700000E-02     1.03806295E-24
  -1.87599994E-02     1.03895910E-24
  -1.87500007E-02     1.03975368E-24
  -1.87400002E-02     1.04044748E-24
  -1.87299997E-02     1.04103854E-24
  -1.87199991E-02     1.04152230E-24
  -1.87100004E-02     1.04189238E-24
  -1.86999999E-02     1.04214097E-24
  -1.86899994E-02     1.04226038E-24
  -1.86800007E-02     1.04224401E-24
  -1.86700001E-02     1.04208713E-24
  -1.86599996E-02     1.04178736E-24
  -1.86500009E-02     1.04134452E-24
  -1.86400004E-02     1.04076046E-24
  -1.86299998E-02     1.04003974E-24
  -1.86199993E-02     1.03918974E-24
  -1.86100006E-02     1.03822132E-24
  -1.86000001E-02     1.03714965E-24
  -1.85899995E-02     1.03599318E-24
  -1.85800008E-02     1.03477291E-24
  -1.85700003E-02     1.03351063E-24
  -1.85599998E-02     1.03222607E-24
  -1.85499992E-02     1.03093569E-24
  -1.85400005E-02     1.02965133E-24
  -1.85300000E-02     1.02838028E-24
  -1.85199995E-02     1.02712648E-24
  -1.85100008E-02     1.02589112E-24
  -1.85000002E-02     1.02467500E-24
  -1.84899997E-02     1.02348017E-24
  -1.84799992E-02     1.02231187E-24
  -1.84700005E-02     1.02117926E-24
  -1.84599999E-02     1.02009704E-24
  -1.84499994E-02     1.01908414E-24
  -1.84400007E-02     1.01816206E-24
  -1.84300002E-02     1.01735210E-24
  -1.84199996E-02     1.01667329E-24
  -1.84099991E-02     1.01614031E-24
  -1.84000004E-02     1.01576353E-24
  -1.83899999E-02     1.01554945E-24
  -1.83799993E-02     1.01550202E-24
  -1.83700006E-02     1.01562380E-24
  -1.83600001E-02     1.01591608E-24
  -1.83499996E-02     1.01637776E-24
  -1.83400009E-02     1.01700500E-24
  -1.83300003E-02     1.01778893E-24
  -1.83199998E-02     1.01871594E-24
  -1.83099993E-02     1.01976690E-24
  -1.83000006E-02     1.02091785E-24
  -1.82900000E-02     1.02214078E-24
  -1.82799995E-02     1.02340611E-24
  -1.82700008E-02     1.02468367E-24
  -1.82600003E-02     1.02594605E-24
  -1.82499997E-02     1.02717016E-24
  -1.82399992E-02     1.02833945E-24
  -1.82300005E-02     1.02944514E-24
  -1.82200000E-02     1.03048486E-24
  -1.82099994E-02     1.03146176E-24
  -1.82000007E-02     1.03238187E-24
  -1.81900002E-02     1.03325169E-24
  -1.81799997E-02     1.03407842E-24
  -1.81699991E-02     1.03486866E-24
  -1.81600004E-02     1.03563030E-24
  -1.81499999E-02     1.03637193E-24
  -1.81399994E-02     1.03710271E-24
  -1.81300007E-02     1.03783172E-24
  -1.81200001E-02     1.03856605E-24
  -1.81099996E-02     1.03930994E-24
  -1.81000009E-02     1.04006400E-24
  -1.80900004E-02     1.04082515E-24
  -1.80799998E-02     1.04158679E-24
  -1.80699993E-02     1.04233887E-24
  -1.80600006E-02     1.04306877E-24
  -1.80500001E-02     1.04376198E-24
  -1.80399995E-02     1.04440313E-24
  -1.80300009E-02     1.04497683E-24
  -1.80200003E-02     1.04546937E-24
  -1.80099998E-02     1.04586903E-24
  -1.79999992E-02     1.04616564E-24
  -1.79900005E-02     1.04635082E-24
  -1.79800000E-02     1.04641640E-24
  -1.79699995E-02     1.04635487E-24
  -1.79600008E-02     1.04615982E-24
  -1.79500002E-02     1.04582741E-24
  -1.79399997E-02     1.04535765E-24
  -1.79299992E-02     1.04475486E-24
  -1.79200005E-02     1.04402763E-24
  -1.79099999E-02     1.04318690E-24
  -1.78999994E-02     1.04224392E-24
  -1.78900007E-02     1.04120804E-24
  -1.78800002E-02     1.04008559E-24
  -1.78699996E-02     1.03888021E-24
  -1.78599991E-02     1.03759397E-24
  -1.78500004E-02     1.03622905E-24
  -1.78399999E-02     1.03478938E-24
  -1.78299993E-02     1.03328295E-24
  -1.78200006E-02     1.03172347E-24
  -1.78100001E-02     1.03013096E-24
  -1.77999996E-02     1.02853164E-24
  -1.77900009E-02     1.02695668E-24
  -1.77800003E-02     1.02543950E-24
  -1.77699998E-02     1.02401186E-24
  -1.77599993E-02     1.02270068E-24
  -1.77500006E-02     1.02152547E-24
  -1.77400000E-02     1.02049749E-24
  -1.77299995E-02     1.01962007E-24
  -1.77200008E-02     1.01889107E-24
  -1.77100003E-02     1.01830495E-24
  -1.76999997E-02     1.01785441E-24
  -1.76899992E-02     1.01753117E-24
  -1.76800005E-02     1.01732626E-24
  -1.76700000E-02     1.01722884E-24
  -1.76599994E-02     1.01722677E-24
  -1.76500008E-02     1.01730615E-24
  -1.76400002E-02     1.01745229E-24
  -1.76299997E-02     1.01765108E-24
  -1.76199991E-02     1.01788922E-24
  -1.76100004E-02     1.01815664E-24
  -1.75999999E-02     1.01844664E-24
  -1.75899994E-02     1.01875617E-24
  -1.75800007E-02     1.01908641E-24
  -1.75700001E-02     1.01944169E-24
  -1.75599996E-02     1.01982804E-24
  -1.75500009E-02     1.02025057E-24
  -1.75400004E-02     1.02071255E-24
  -1.75299998E-02     1.02121308E-24
  -1.75199993E-02     1.02174744E-24
  -1.75100006E-02     1.02230822E-24
  -1.75000001E-02     1.02288675E-24
  -1.74899995E-02     1.02347514E-24
  -1.74800009E-02     1.02406777E-24
  -1.74700003E-02     1.02466080E-24
  -1.74599998E-02     1.02525225E-24
  -1.74499992E-02     1.02584005E-24
  -1.74400005E-02     1.02642213E-24
  -1.74300000E-02     1.02699504E-24
  -1.74199995E-02     1.02755464E-24
  -1.74100008E-02     1.02809688E-24
  -1.74000002E-02     1.02861861E-24
  -1.73899997E-02     1.02911875E-24
  -1.73799992E-02     1.02959798E-24
  -1.73700005E-02     1.03005887E-24
  -1.73599999E-02     1.03050527E-24
  -1.73499994E-02     1.03094141E-24
  -1.73400007E-02     1.03136927E-24
  -1.73300002E-02     1.03178786E-24
  -1.73199996E-02     1.03219107E-24
  -1.73099991E-02     1.03256814E-24
  -1.73000004E-02     1.03290390E-24
  -1.72899999E-02     1.03318158E-24
  -1.72799993E-02     1.03338471E-24
  -1.72700007E-02     1.03349959E-24
  -1.72600001E-02     1.03351645E-24
  -1.72499996E-02     1.03342899E-24
  -1.72400009E-02     1.03323414E-24
  -1.72300003E-02     1.03293013E-24
  -1.72199998E-02     1.03251529E-24
  -1.72099993E-02     1.03198715E-24
  -1.72000006E-02     1.03134245E-24
  -1.71900000E-02     1.03057893E-24
  -1.71799995E-02     1.02969551E-24
  -1.71700008E-02     1.02869464E-24
  -1.71600003E-02     1.02758343E-24
  -1.71499997E-02     1.02637460E-24
  -1.71399992E-02     1.02508599E-24
  -1.71300005E-02     1.02373970E-24
  -1.71200000E-02     1.02235959E-24
  -1.71099994E-02     1.02096942E-24
  -1.71000008E-02     1.01958980E-24
  -1.70900002E-02     1.01823789E-24
  -1.70799997E-02     1.01692671E-24
  -1.70699991E-02     1.01566660E-24
  -1.70600004E-02     1.01446704E-24
  -1.70499999E-02     1.01333660E-24
  -1.70399994E-02     1.01228426E-24
  -1.70300007E-02     1.01131761E-24
  -1.70200001E-02     1.01044257E-24
  -1.70099996E-02     1.00966199E-24
  -1.70000009E-02     1.00897509E-24
  -1.69900004E-02     1.00837792E-24
  -1.69799998E-02     1.00786437E-24
  -1.69699993E-02     1.00742685E-24
  -1.69600006E-02     1.00705894E-24
  -1.69500001E-02     1.00675671E-24
  -1.69399995E-02     1.00651946E-24
  -1.69300009E-02     1.00635025E-24
  -1.69200003E-02     1.00625519E-24
  -1.69099998E-02     1.00624080E-24
  -1.68999992E-02     1.00631160E-24
  -1.68900006E-02     1.00646828E-24
  -1.68800000E-02     1.00670613E-24
  -1.68699995E-02     1.00701536E-24
  -1.68600008E-02     1.00738366E-24
  -1.68500002E-02     1.00779811E-24
  -1.68399997E-02     1.00824855E-24
  -1.68299992E-02     1.00872916E-24
  -1.68200005E-02     1.00923896E-24
  -1.68099999E-02     1.00978091E-24
  -1.67999994E-02     1.01035964E-24
  -1.67900007E-02     1.01097998E-24
  -1.67800002E-02     1.01164430E-24
  -1.67699996E-02     1.01235161E-24
  -1.67599991E-02     1.01309896E-24
  -1.67500004E-02     1.01388101E-24
  -1.67399999E-02     1.01469216E-24
  -1.67299993E-02     1.01552835E-24
  -1.67200007E-02     1.01638791E-24
  -1.67100001E-02     1.01727312E-24
  -1.66999996E-02     1.01818849E-24
  -1.66900009E-02     1.01913946E-24
  -1.66800003E-02     1.02012899E-24
  -1.66699998E-02     1.02115490E-24
  -1.66599993E-02     1.02220793E-24
  -1.66500006E-02     1.02327240E-24
  -1.66400000E-02     1.02432741E-24
  -1.66299995E-02     1.02535056E-24
  -1.66200008E-02     1.02632135E-24
  -1.66100003E-02     1.02722381E-24
  -1.65999997E-02     1.02804629E-24
  -1.65899992E-02     1.02878161E-24
  -1.65800005E-02     1.02942424E-24
  -1.65700000E-02     1.02996855E-24
  -1.65599994E-02     1.03040745E-24
  -1.65500008E-02     1.03073315E-24
  -1.65400002E-02     1.03093717E-24
  -1.65299997E-02     1.03101271E-24
  -1.65199991E-02     1.03095640E-24
  -1.65100005E-02     1.03077003E-24
  -1.64999999E-02     1.03046257E-24
  -1.64899994E-02     1.03005039E-24
  -1.64800007E-02     1.02955617E-24
  -1.64700001E-02     1.02900634E-24
  -1.64599996E-02     1.02842771E-24
  -1.64500009E-02     1.02784346E-24
  -1.64400004E-02     1.02727035E-24
  -1.64299998E-02     1.02671795E-24
  -1.64199993E-02     1.02618971E-24
  -1.64100006E-02     1.02568503E-24
  -1.64000001E-02     1.02520284E-24
  -1.63899995E-02     1.02474294E-24
  -1.63800009E-02     1.02430640E-24
  -1.63700003E-02     1.02389452E-24
  -1.63599998E-02     1.02350591E-24
  -1.63499992E-02     1.02313475E-24
  -1.63400006E-02     1.02277098E-24
  -1.63300000E-02     1.02239982E-24
  -1.63199995E-02     1.02200500E-24
  -1.63100008E-02     1.02157182E-24
  -1.63000003E-02     1.02109012E-24
  -1.62899997E-02     1.02055764E-24
  -1.62799992E-02     1.01998088E-24
  -1.62700005E-02     1.01937504E-24
  -1.62599999E-02     1.01876120E-24
  -1.62499994E-02     1.01816265E-24
  -1.62400007E-02     1.01759882E-24
  -1.62300002E-02     1.01708103E-24
  -1.62199996E-02     1.01660929E-24
  -1.62099991E-02     1.01617167E-24
  -1.62000004E-02     1.01574647E-24
  -1.61899999E-02     1.01530816E-24
  -1.61799993E-02     1.01483169E-24
  -1.61700007E-02     1.01429724E-24
  -1.61600001E-02     1.01369277E-24
  -1.61499996E-02     1.01301356E-24
  -1.61400009E-02     1.01225951E-24
  -1.61300004E-02     1.01143328E-24
  -1.61199998E-02     1.01053654E-24
  -1.61099993E-02     1.00956871E-24
  -1.61000006E-02     1.00852721E-24
  -1.60900000E-02     1.00740841E-24
  -1.60799995E-02     1.00621052E-24
  -1.60700008E-02     1.00493553E-24
  -1.60600003E-02     1.00359141E-24
  -1.60499997E-02     1.00219256E-24
  -1.60399992E-02     1.00075881E-24
  -1.60300005E-02     9.99312330E-25
  -1.60200000E-02     9.97873448E-25
  -1.60099994E-02     9.96457147E-25
  -1.60000008E-02     9.95069146E-25
  -1.59900002E-02     9.93705896E-25
  -1.59799997E-02     9.92357338E-25
  -1.59699991E-02     9.91009865E-25
  -1.59600005E-02     9.89651742E-25
  -1.59499999E-02     9.88275969E-25
  -1.59399994E-02     9.86882249E-25
  -1.59300007E-02     9.85475710E-25
  -1.59200002E-02     9.84065128E-25
  -1.59099996E-02     9.82658687E-25
  -1.59000009E-02     9.81262108E-25
  -1.58900004E-02     9.79875882E-25
  -1.58799998E-02     9.78496756E-25
  -1.58699993E-02     9.77118419E-25
  -1.58600006E-02     9.75736039E-25
  -1.58500001E-02     9.74348728E-25
  -1.58399995E-02     9.72963094E-25
  -1.58300009E-02     9.71594519E-25
  -1.58200003E-02     9.70265485E-25
  -1.58099998E-02     9.69002421E-25
  -1.57999992E-02     9.67830666E-25
  -1.57900006E-02     9.66769747E-25
  -1.57800000E-02     9.65830411E-25
  -1.57699995E-02     9.65013250E-25
  -1.57600008E-02     9.64310868E-25
  -1.57500003E-02     9.63711629E-25
  -1.57399997E-02     9.63204096E-25
  -1.57299992E-02     9.62780280E-25
  -1.57200005E-02     9.62438013E-25
  -1.57099999E-02     9.62180549E-25
  -1.56999994E-02     9.62014395E-25
  -1.56900007E-02     9.61945271E-25
  -1.56800002E-02     9.61974853E-25
  -1.56699996E-02     9.62098704E-25
  -1.56599991E-02     9.62305484E-25
  -1.56500004E-02     9.62579121E-25
  -1.56399999E-02     9.62901469E-25
  -1.56299993E-02     9.63256851E-25
  -1.56199997E-02     9.63635110E-25
  -1.56100001E-02     9.64033090E-25
  -1.55999996E-02     9.64454046E-25
  -1.55900000E-02     9.64904683E-25
  -1.55800004E-02     9.65389931E-25
  -1.55699998E-02     9.65909001E-25
  -1.55600002E-02     9.66451836E-25
  -1.55499997E-02     9.66998714E-25
  -1.55400001E-02     9.67522123E-25
  -1.55300004E-02     9.67991101E-25
  -1.55199999E-02     9.68377544E-25
  -1.55100003E-02     9.68661041E-25
  -1.54999997E-02     9.68832421E-25
  -1.54900001E-02     9.68894445E-25
  -1.54799996E-02     9.68860031E-25
  -1.54700000E-02     9.68748407E-25
  -1.54600004E-02     9.68579394E-25
  -1.54499998E-02     9.68369655E-25
  -1.54400002E-02     9.68129053E-25
  -1.54299997E-02     9.67860347E-25
  -1.54200001E-02     9.67560679E-25
  -1.54100005E-02     9.67224131E-25
  -1.53999999E-02     9.66846365E-25
  -1.53900003E-02     9.66427085E-25
  -1.53799998E-02     9.65970631E-25
  -1.53700002E-02     9.65486172E-25
  -1.53599996E-02     9.64983667E-25
  -1.53500000E-02     9.64472091E-25
  -1.53400004E-02     9.63955190E-25
  -1.53299998E-02     9.63431682E-25
  -1.53200002E-02     9.62894764E-25
  -1.53099997E-02     9.62334672E-25
  -1.53000001E-02     9.61742238E-25
  -1.52899995E-02     9.61111050E-25
  -1.52799999E-02     9.60438842E-25
  -1.52700003E-02     9.59728276E-25
  -1.52599998E-02     9.58984281E-25
  -1.52500002E-02     9.58211296E-25
  -1.52399996E-02     9.57409715E-25
  -1.52300000E-02     9.56572931E-25
  -1.52200004E-02     9.55687139E-25
  -1.52099999E-02     9.54732124E-25
  -1.52000003E-02     9.53684911E-25
  -1.51899997E-02     9.52523905E-25
  -1.51800001E-02     9.51234019E-25
  -1.51699996E-02     9.49810717E-25
  -1.51600000E-02     9.48261492E-25
  -1.51500003E-02     9.46604786E-25
  -1.51399998E-02     9.44867221E-25
  -1.51300002E-02     9.43078085E-25
  -1.51199996E-02     9.41264099E-25
  -1.51100000E-02     9.39446662E-25
  -1.51000004E-02     9.37640664E-25
  -1.50899999E-02     9.35855866E-25
  -1.50800003E-02     9.34099270E-25
  -1.50699997E-02     9.32378271E-25
  -1.50600001E-02     9.30703618E-25
  -1.50499996E-02     9.29089904E-25
  -1.50400000E-02     9.27555176E-25
  -1.50300004E-02     9.26118857E-25
  -1.50199998E-02     9.24799684E-25
  -1.50100002E-02     9.23613139E-25
  -1.49999997E-02     9.22569180E-25
  -1.49900001E-02     9.21673231E-25
  -1.49800004E-02     9.20926377E-25
  -1.49699999E-02     9.20328125E-25
  -1.49600003E-02     9.19879460E-25
  -1.49499997E-02     9.19584525E-25
  -1.49400001E-02     9.19451898E-25
  -1.49299996E-02     9.19494003E-25
  -1.49200000E-02     9.19723759E-25
  -1.49100004E-02     9.20150730E-25
  -1.48999998E-02     9.20776395E-25
  -1.48900002E-02     9.21591584E-25
  -1.48799997E-02     9.22574801E-25
  -1.48700001E-02     9.23694885E-25
  -1.48600005E-02     9.24914957E-25
  -1.48499999E-02     9.26197940E-25
  -1.48400003E-02     9.27511690E-25
  -1.48299998E-02     9.28832637E-25
  -1.48200002E-02     9.30146682E-25
  -1.48099996E-02     9.31448894E-25
  -1.48000000E-02     9.32741246E-25
  -1.47900004E-02     9.34029751E-25
  -1.47799999E-02     9.35321511E-25
  -1.47700002E-02     9.36623033E-25
  -1.47599997E-02     9.37938261E-25
  -1.47500001E-02     9.39268675E-25
  -1.47399995E-02     9.40614078E-25
  -1.47299999E-02     9.41974271E-25
  -1.47200003E-02     9.43351129E-25
  -1.47099998E-02     9.44750470E-25
  -1.47000002E-02     9.46181463E-25
  -1.46899996E-02     9.47656239E-25
  -1.46800000E-02     9.49186629E-25
  -1.46700004E-02     9.50781410E-25
  -1.46599999E-02     9.52444920E-25
  -1.46500003E-02     9.54175090E-25
  -1.46399997E-02     9.55965508E-25
  -1.46300001E-02     9.57805822E-25
  -1.46199996E-02     9.59684198E-25
  -1.46100000E-02     9.61588410E-25
  -1.46000003E-02     9.63506427E-25
  -1.45899998E-02     9.65425627E-25
  -1.45800002E-02     9.67331909E-25
  -1.45699997E-02     9.69210187E-25
  -1.45600000E-02     9.71043302E-25
  -1.45500004E-02     9.72813703E-25
  -1.45399999E-02     9.74504331E-25
  -1.45300003E-02     9.76100098E-25
  -1.45199997E-02     9.77589369E-25
  -1.45100001E-02     9.78965241E-25
  -1.44999996E-02     9.80226629E-25
  -1.44900000E-02     9.81378169E-25
  -1.44800004E-02     9.82429819E-25
  -1.44699998E-02     9.83394202E-25
  -1.44600002E-02     9.84283347E-25
  -1.44499997E-02     9.85105044E-25
  -1.44400001E-02     9.85858800E-25
  -1.44300004E-02     9.86534953E-25
  -1.44199999E-02     9.87114667E-25
  -1.44100003E-02     9.87572699E-25
  -1.43999998E-02     9.87881045E-25
  -1.43900001E-02     9.88012884E-25
  -1.43799996E-02     9.87945436E-25
  -1.43700000E-02     9.87662038E-25
  -1.43600004E-02     9.87152335E-25
  -1.43499998E-02     9.86413961E-25
  -1.43400002E-02     9.85452241E-25
  -1.43299997E-02     9.84280881E-25
  -1.43200001E-02     9.82921773E-25
  -1.43100005E-02     9.81404004E-25
  -1.42999999E-02     9.79762680E-25
  -1.42900003E-02     9.78036653E-25
  -1.42799998E-02     9.76265857E-25
  -1.42700002E-02     9.74490329E-25
  -1.42599996E-02     9.72747833E-25
  -1.42500000E-02     9.71071603E-25
  -1.42400004E-02     9.69488359E-25
  -1.42299999E-02     9.68014767E-25
  -1.42200002E-02     9.66655559E-25
  -1.42099997E-02     9.65402454E-25
  -1.42000001E-02     9.64235433E-25
  -1.41899996E-02     9.63126393E-25
  -1.41799999E-02     9.62045160E-25
  -1.41700003E-02     9.60964027E-25
  -1.41599998E-02     9.59863270E-25
  -1.41500002E-02     9.58732635E-25
  -1.41399996E-02     9.57573404E-25
  -1.41300000E-02     9.56397114E-25
  -1.41200004E-02     9.55224373E-25
  -1.41099999E-02     9.54083089E-25
  -1.41000003E-02     9.53006195E-25
  -1.40899997E-02     9.52029684E-25
  -1.40800001E-02     9.51189054E-25
  -1.40699996E-02     9.50516057E-25
  -1.40600000E-02     9.50036922E-25
  -1.40500003E-02     9.49770978E-25
  -1.40399998E-02     9.49730746E-25
  -1.40300002E-02     9.49922045E-25
  -1.40199997E-02     9.50345762E-25
  -1.40100000E-02     9.50996769E-25
  -1.40000004E-02     9.51863924E-25
  -1.39899999E-02     9.52929478E-25
  -1.39800003E-02     9.54169173E-25
  -1.39699997E-02     9.55553624E-25
  -1.39600001E-02     9.57051178E-25
  -1.39499996E-02     9.58631365E-25
  -1.39400000E-02     9.60268448E-25
  -1.39300004E-02     9.61942313E-25
  -1.39199998E-02     9.63639251E-25
  -1.39100002E-02     9.65350685E-25