  -2.19999999E-02     1.00000002E-24
  -2.19899993E-02     1.00000002E-24
  -2.19800007E-02     1.00000002E-24
  -2.19700001E-02     1.00000012E-24
  -2.19599996E-02     1.00000022E-24
  -2.19500009E-02     1.00000032E-24
  -2.19400004E-02     1.00000032E-24
  -2.19299998E-02     1.00000022E-24
  -2.19199993E-02     1.00000012E-24
  -2.19100006E-02     1.00000002E-24
  -2.19000001E-02     1.00000002E-24
  -2.18899995E-02     1.00000012E-24
  -2.18800008E-02     1.00000022E-24
  -2.18700003E-02     1.00000032E-24
  -2.18599997E-02     1.00000032E-24
  -2.18499992E-02     1.00000032E-24
  -2.18400005E-02     1.00000022E-24
  -2.18300000E-02     1.00000012E-24
  -2.18199994E-02     1.00000002E-24
  -2.18100008E-02     1.00000012E-24
  -2.18000002E-02     1.00000022E-24
  -2.17899997E-02     1.00000032E-24
  -2.17799991E-02     1.00000041E-24
  -2.17700005E-02     1.00000022E-24
  -2.17599999E-02     1.00000002E-24
  -2.17499994E-02     9.99999822E-25
  -2.17400007E-02     9.99999625E-25
  -2.17300002E-02     9.99999724E-25
  -2.17199996E-02     9.99999921E-25
  -2.17099991E-02     1.00000012E-24
  -2.17000004E-02     1.00000032E-24
  -2.16899998E-02     1.00000051E-24
  -2.16799993E-02     1.00000071E-24
  -2.16700006E-02     1.00000071E-24
  -2.16600001E-02     1.00000061E-24
  -2.16499995E-02     1.00000051E-24
  -2.16400009E-02     1.00000041E-24
  -2.16300003E-02     1.00000022E-24
  -2.16199998E-02     9.99999822E-25
  -2.16099992E-02     9.99999231E-25
  -2.16000006E-02     9.99998639E-25
  -2.15900000E-02     9.99998245E-25
  -2.15799995E-02     9.99998442E-25
  -2.15700008E-02     9.99999329E-25
  -2.15600003E-02     1.00000130E-24
  -2.15499997E-02     1.00000426E-24
  -2.15399992E-02     1.00000742E-24
  -2.15300005E-02     1.00000998E-24
  -2.15200000E-02     1.00001096E-24
  -2.15099994E-02     1.00000939E-24
  -2.15000007E-02     1.00000465E-24
  -2.14900002E-02     9.99996864E-25
  -2.14799996E-02     9.99986806E-25
  -2.14699991E-02     9.99975861E-25
  -2.14600004E-02     9.99965901E-25
  -2.14499999E-02     9.99959097E-25
  -2.14399993E-02     9.99957322E-25
  -2.14300007E-02     9.99962253E-25
  -2.14200001E-02     9.99974776E-25
  -2.14099996E-02     9.99994793E-25
  -2.14000009E-02     1.00002092E-24
  -2.13900004E-02     1.00005061E-24
  -2.13799998E-02     1.00008009E-24
  -2.13699993E-02     1.00010464E-24
  -2.13600006E-02     1.00011953E-24
  -2.13500001E-02     1.00012012E-24
  -2.13399995E-02     1.00010336E-24
  -2.13300008E-02     1.00006826E-24
  -2.13200003E-02     1.00001659E-24
  -2.13099997E-02     9.99953082E-25
  -2.12999992E-02     9.99884649E-25
  -2.12900005E-02     9.99820258E-25
  -2.12800000E-02     9.99769179E-25
  -2.12699994E-02     9.99740188E-25
  -2.12600008E-02     9.99739991E-25
  -2.12500002E-02     9.99772335E-25
  -2.12399997E-02     9.99837021E-25
  -2.12299991E-02     9.99929121E-25
  -2.12200005E-02     1.00003956E-24
  -2.12099999E-02     1.00015592E-24
  -2.11999994E-02     1.00026399E-24
  -2.11900007E-02     1.00034978E-24
  -2.11800002E-02     1.00040125E-24
  -2.11699996E-02     1.00041062E-24
  -2.11599991E-02     1.00037562E-24
  -2.11500004E-02     1.00029998E-24
  -2.11399999E-02     1.00019378E-24
  -2.11299993E-02     1.00007190E-24
  -2.11200006E-02     9.99952293E-25
  -2.11100001E-02     9.99853686E-25
  -2.10999995E-02     9.99792746E-25
  -2.10900009E-02     9.99781702E-25
  -2.10800003E-02     9.99826470E-25
  -2.10699998E-02     9.99925669E-25
  -2.10599992E-02     1.00007082E-24
  -2.10500006E-02     1.00024733E-24
  -2.10400000E-02     1.00043606E-24
  -2.10299995E-02     1.00061573E-24
  -2.10200008E-02     1.00076610E-24
  -2.10100003E-02     1.00087013E-24
  -2.09999997E-02     1.00091737E-24
  -2.09899992E-02     1.00090504E-24
  -2.09800005E-02     1.00083897E-24
  -2.09700000E-02     1.00073336E-24
  -2.09599994E-02     1.00060882E-24
  -2.09500007E-02     1.00048961E-24
  -2.09400002E-02     1.00040096E-24
  -2.09299996E-02     1.00036487E-24
  -2.09199991E-02     1.00039731E-24
  -2.09100004E-02     1.00050568E-24
  -2.08999999E-02     1.00068722E-24
  -2.08899993E-02     1.00092920E-24
  -2.08800007E-02     1.00121023E-24
  -2.08700001E-02     1.00150339E-24
  -2.08599996E-02     1.00177920E-24
  -2.08500009E-02     1.00200994E-24
  -2.08400004E-02     1.00217284E-24
  -2.08299998E-02     1.00225291E-24
  -2.08199993E-02     1.00224502E-24
  -2.08100006E-02     1.00215469E-24
  -2.08000001E-02     1.00199732E-24
  -2.07899995E-02     1.00179635E-24
  -2.07800008E-02     1.00158050E-24
  -2.07700003E-02     1.00137984E-24
  -2.07599998E-02     1.00122147E-24
  -2.07499992E-02     1.00112622E-24
  -2.07400005E-02     1.00110512E-24
  -2.07300000E-02     1.00115777E-24
  -2.07199994E-02     1.00127225E-24
  -2.07100008E-02     1.00142658E-24
  -2.07000002E-02     1.00159165E-24
  -2.06899997E-02     1.00173551E-24
  -2.06799991E-02     1.00182791E-24
  -2.06700005E-02     1.00184388E-24
  -2.06599999E-02     1.00176746E-24
  -2.06499994E-02     1.00159391E-24
  -2.06400007E-02     1.00132984E-24
  -2.06300002E-02     1.00099260E-24
  -2.06199996E-02     1.00060843E-24
  -2.06099991E-02     1.00020877E-24
  -2.06000004E-02     9.99826667E-25
  -2.05899999E-02     9.99492486E-25
  -2.05799993E-02     9.99230091E-25
  -2.05700006E-02     9.99053879E-25
  -2.05600001E-02     9.98966612E-25
  -2.05499995E-02     9.98959709E-25
  -2.05400009E-02     9.99014141E-25
  -2.05300003E-02     9.99102986E-25
  -2.05199998E-02     9.99195283E-25
  -2.05099992E-02     9.99260068E-25
  -2.05000006E-02     9.99270422E-25
  -2.04900000E-02     9.99207017E-25
  -2.04799995E-02     9.99060585E-25
  -2.04700008E-02     9.98833393E-25
  -2.04600003E-02     9.98538753E-25
  -2.04499997E-02     9.98198951E-25
  -2.04399992E-02     9.97842682E-25
  -2.04300005E-02     9.97500711E-25
  -2.04200000E-02     9.97202127E-25
  -2.04099994E-02     9.96970399E-25
  -2.04000007E-02     9.96820516E-25
  -2.03900002E-02     9.96756519E-25
  -2.03799997E-02     9.96771705E-25
  -2.03699991E-02     9.96849013E-25
  -2.03600004E-02     9.96963398E-25
  -2.03499999E-02     9.97085573E-25
  -2.03399993E-02     9.97186054E-25
  -2.03300007E-02     9.97239795E-25
  -2.03200001E-02     9.97229244E-25
  -2.03099996E-02     9.97147597E-25
  -2.03000009E-02     9.96998995E-25
  -2.02900004E-02     9.96798625E-25
  -2.02799998E-02     9.96570250E-25
  -2.02699993E-02     9.96342663E-25
  -2.02600006E-02     9.96145744E-25
  -2.02500001E-02     9.96006214E-25
  -2.02399995E-02     9.95943697E-25
  -2.02300008E-02     9.95968349E-25
  -2.02200003E-02     9.96079381E-25
  -2.02099998E-02     9.96265453E-25
  -2.01999992E-02     9.96505760E-25
  -2.01900005E-02     9.96772888E-25
  -2.01800000E-02     9.97036466E-25
  -2.01699995E-02     9.97266912E-25
  -2.01600008E-02     9.97439673E-25
  -2.01500002E-02     9.97538083E-25
  -2.01399997E-02     9.97556030E-25
  -2.01299991E-02     9.97498837E-25
  -2.01200005E-02     9.97382185E-25
  -2.01099999E-02     9.97230033E-25
  -2.00999994E-02     9.97070979E-25
  -2.00900007E-02     9.96933816E-25
  -2.00800002E-02     9.96843097E-25
  -2.00699996E-02     9.96815684E-25
  -2.00599991E-02     9.96858480E-25
  -2.00500004E-02     9.96968033E-25
  -2.00399999E-02     9.97131031E-25
  -2.00299993E-02     9.97326767E-25
  -2.00200006E-02     9.97529997E-25
  -2.00100001E-02     9.97714689E-25
  -1.99999996E-02     9.97856783E-25
  -1.99900009E-02     9.97937937E-25
  -1.99800003E-02     9.97947305E-25
  -1.99699998E-02     9.97882914E-25
  -1.99599992E-02     9.97752062E-25
  -1.99500006E-02     9.97569539E-25
  -1.99400000E-02     9.97355462E-25
  -1.99299995E-02     9.97132214E-25
  -1.99200008E-02     9.96920504E-25
  -1.99100003E-02     9.96736798E-25
  -1.98999997E-02     9.96590957E-25
  -1.98899992E-02     9.96484855E-25
  -1.98800005E-02     9.96412477E-25
  -1.98700000E-02     9.96361201E-25
  -1.98599994E-02     9.96314461E-25
  -1.98500007E-02     9.96254705E-25
  -1.98400002E-02     9.96166747E-25
  -1.98299997E-02     9.96040332E-25
  -1.98199991E-02     9.95872108E-25
  -1.98100004E-02     9.95666215E-25
  -1.97999999E-02     9.95433895E-25
  -1.97899994E-02     9.95191518E-25
  -1.97800007E-02     9.94958311E-25
  -1.97700001E-02     9.94753306E-25
  -1.97599996E-02     9.94592279E-25
  -1.97500009E-02     9.94484501E-25
  -1.97400004E-02     9.94431450E-25
  -1.97299998E-02     9.94425534E-25
  -1.97199993E-02     9.94451172E-25
  -1.97100006E-02     9.94486572E-25
  -1.97000001E-02     9.94506984E-25
  -1.96899995E-02     9.94488248E-25
  -1.96800008E-02     9.94409954E-25
  -1.96700003E-02     9.94259084E-25
  -1.96599998E-02     9.94031892E-25
  -1.96499992E-02     9.93735182E-25
  -1.96400005E-02     9.93385224E-25
  -1.96300000E-02     9.93006472E-25
  -1.96199995E-02     9.92628016E-25
  -1.96100008E-02     9.92279931E-25
  -1.96000002E-02     9.91989236E-25
  -1.95899997E-02     9.91776243E-25
  -1.95799991E-02     9.91652195E-25
  -1.95700005E-02     9.91617288E-25
  -1.95599999E-02     9.91660872E-25
  -1.95499994E-02     9.91762537E-25
  -1.95400007E-02     9.91894572E-25
  -1.95300002E-02     9.92026016E-25
  -1.95199996E-02     9.92126892E-25
  -1.95099991E-02     9.92172646E-25
  -1.95000004E-02     9.92147797E-25
  -1.94899999E-02     9.92048203E-25
  -1.94799993E-02     9.91882148E-25
  -1.94700006E-02     9.91669254E-25
  -1.94600001E-02     9.91437822E-25
  -1.94499996E-02     9.91220885E-25
  -1.94400009E-02     9.91052069E-25
  -1.94300003E-02     9.90960364E-25
  -1.94199998E-02     9.90966280E-25
  -1.94099993E-02     9.91078496E-25
  -1.94000006E-02     9.91291883E-25
  -1.93900000E-02     9.91587903E-25
  -1.93799995E-02     9.91936185E-25
  -1.93700008E-02     9.92297976E-25
  -1.93600003E-02     9.92631368E-25
  -1.93499997E-02     9.92896524E-25
  -1.93399992E-02     9.93060903E-25
  -1.93300005E-02     9.93103600E-25
  -1.93200000E-02     9.93018403E-25
  -1.93099994E-02     9.92814680E-25
  -1.93000007E-02     9.92516096E-25
  -1.92900002E-02     9.92157756E-25
  -1.92799997E-02     9.91781667E-25
  -1.92699991E-02     9.91431215E-25
  -1.92600004E-02     9.91145943E-25
  -1.92499999E-02     9.90956222E-25
  -1.92399994E-02     9.90879506E-25
  -1.92300007E-02     9.90918751E-25
  -1.92200001E-02     9.91061930E-25
  -1.92099996E-02     9.91283994E-25
  -1.92000009E-02     9.91549742E-25
  -1.91900004E-02     9.91818842E-25
  -1.91799998E-02     9.92050767E-25
  -1.91699993E-02     9.92209722E-25
  -1.91600006E-02     9.92269084E-25
  -1.91500001E-02     9.92214948E-25
  -1.91399995E-02     9.92047611E-25
  -1.91300008E-02     9.91781469E-25
  -1.91200003E-02     9.91443048E-25
  -1.91099998E-02     9.91067452E-25
  -1.90999992E-02     9.90693630E-25
  -1.90900005E-02     9.90359153E-25
  -1.90800000E-02     9.90095674E-25
  -1.90699995E-02     9.89925082E-25
  -1.90600008E-02     9.89857536E-25
  -1.90500002E-02     9.89890274E-25
  -1.90399997E-02     9.90009392E-25
  -1.90299992E-02     9.90192211E-25
  -1.90200005E-02     9.90410232E-25
  -1.90099999E-02     9.90633578E-25
  -1.89999994E-02     9.90833752E-25
  -1.89900007E-02     9.90987086E-25
  -1.89800002E-02     9.91076524E-25
  -1.89699996E-02     9.91093090E-25
  -1.89599991E-02     9.91035503E-25
  -1.89500004E-02     9.90909778E-25
  -1.89399999E-02     9.90727946E-25
  -1.89299993E-02     9.90505684E-25
  -1.89200006E-02     9.90259658E-25
  -1.89100001E-02     9.90005941E-25
  -1.88999996E-02     9.89758041E-25
  -1.88900009E-02     9.89525722E-25
  -1.88800003E-02     9.89315293E-25
  -1.88699998E-02     9.89129615E-25
  -1.88599993E-02     9.88969871E-25
  -1.88500006E-02     9.88835567E-25
  -1.88400000E-02     9.88726014E-25
  -1.88299995E-02     9.88640028E-25
  -1.88200008E-02     9.88576525E-25
  -1.88100003E-02     9.88533926E-25
  -1.87999997E-02     9.88510162E-25
  -1.87899992E-02     9.88500991E-25
  -1.87800005E-02     9.88500104E-25
  -1.87700000E-02     9.88498723E-25
  -1.87599994E-02     9.88485510E-25
  -1.87500007E-02     9.88448138E-25
  -1.87400002E-02     9.88373985E-25
  -1.87299997E-02     9.88252895E-25
  -1.87199991E-02     9.88078655E-25
  -1.87100004E-02     9.87850970E-25
  -1.86999999E-02     9.87576742E-25
  -1.86899994E-02     9.87270368E-25
  -1.86800007E-02     9.86953148E-25
  -1.86700001E-02     9.86652000E-25
  -1.86599996E-02     9.86396113E-25
  -1.86500009E-02     9.86213788E-25
  -1.86400004E-02     9.86127999E-25
  -1.86299998E-02     9.86152848E-25
  -1.86199993E-02     9.86290504E-25
  -1.86100006E-02     9.86529529E-25
  -1.86000001E-02     9.86845468E-25
  -1.85899995E-02     9.87202822E-25
  -1.85800008E-02     9.87558796E-25
  -1.85700003E-02     9.87868029E-25
  -1.85599998E-02     9.88088023E-25
  -1.85499992E-02     9.88184757E-25
  -1.85400005E-02     9.88137228E-25
  -1.85300000E-02     9.87940308E-25
  -1.85199995E-02     9.87605733E-25
  -1.85100008E-02     9.87161703E-25
  -1.85000002E-02     9.86649929E-25
  -1.84899997E-02     9.86121590E-25
  -1.84799992E-02     9.85631214E-25
  -1.84700005E-02     9.85230867E-25
  -1.84599999E-02     9.84963147E-25
  -1.84499994E-02     9.84855764E-25
  -1.84400007E-02     9.84917788E-25
  -1.84300002E-02     9.85137584E-25
  -1.84199996E-02     9.85484190E-25
  -1.84099991E-02     9.85910569E-25
  -1.84000004E-02     9.86360516E-25
  -1.83899999E-02     9.86774668E-25
  -1.83799993E-02     9.87099284E-25
  -1.83700006E-02     9.87292456E-25
  -1.83600001E-02     9.87330223E-25
  -1.83499996E-02     9.87210218E-25
  -1.83400009E-02     9.86951866E-25
  -1.83300003E-02     9.86594610E-25
  -1.83199998E-02     9.86193179E-25
  -1.83099993E-02     9.85810680E-25
  -1.83000006E-02     9.85510420E-25
  -1.82900000E-02     9.85347520E-25
  -1.82799995E-02     9.85362015E-25
  -1.82700008E-02     9.85573035E-25
  -1.82600003E-02     9.85976143E-25
  -1.82499997E-02     9.86543137E-25
  -1.82399992E-02     9.87225699E-25
  -1.82300005E-02     9.87960424E-25
  -1.82200000E-02     9.88676414E-25
  -1.82099994E-02     9.89303460E-25
  -1.82000007E-02     9.89780622E-25
  -1.81900002E-02     9.90063330E-25
  -1.81799997E-02     9.90128510E-25
  -1.81699991E-02     9.89977246E-25
  -1.81600004E-02     9.89634683E-25
  -1.81499999E-02     9.89146378E-25
  -1.81399994E-02     9.88572679E-25
  -1.81300007E-02     9.87981231E-25
  -1.81200001E-02     9.87438889E-25
  -1.81099996E-02     9.87004029E-25
  -1.81000009E-02     9.86719743E-25
  -1.80900004E-02     9.86609007E-25
  -1.80799998E-02     9.86672412E-25
  -1.80699993E-02     9.86888461E-25
  -1.80600006E-02     9.87217120E-25
  -1.80500001E-02     9.87604845E-25
  -1.80399995E-02     9.87991782E-25
  -1.80300009E-02     9.88319652E-25
  -1.80200003E-02     9.88538364E-25
  -1.80099998E-02     9.88612418E-25
  -1.79999992E-02     9.88524164E-25
  -1.79900005E-02     9.88275870E-25
  -1.79800000E-02     9.87888539E-25
  -1.79699995E-02     9.87399248E-25
  -1.79600008E-02     9.86856118E-25
  -1.79500002E-02     9.86312297E-25
  -1.79399997E-02     9.85819850E-25
  -1.79299992E-02     9.85424237E-25
  -1.79200005E-02     9.85158884E-25
  -1.79099999E-02     9.85042527E-25
  -1.78999994E-02     9.85077828E-25
  -1.78900007E-02     9.85251476E-25
  -1.78800002E-02     9.85536353E-25
  -1.78699996E-02     9.85894989E-25
  -1.78599991E-02     9.86283701E-25
  -1.78500004E-02     9.86657916E-25
  -1.78399999E-02     9.86977011E-25
  -1.78299993E-02     9.87208443E-25
  -1.78200006E-02     9.87330618E-25
  -1.78100001E-02     9.87334463E-25
  -1.77999996E-02     9.87223037E-25
  -1.77900009E-02     9.87011030E-25
  -1.77800003E-02     9.86722011E-25
  -1.77699998E-02     9.86386154E-25
  -1.77599993E-02     9.86036886E-25
  -1.77500006E-02     9.85707536E-25
  -1.77400000E-02     9.85428871E-25
  -1.77299995E-02     9.85226331E-25
  -1.77200008E-02     9.85118257E-25
  -1.77100003E-02     9.85115496E-25
  -1.76999997E-02     9.85220809E-25
  -1.76899992E-02     9.85429463E-25
  -1.76800005E-02     9.85730216E-25
  -1.76700000E-02     9.86105911E-25
  -1.76599994E-02     9.86534756E-25
  -1.76500008E-02     9.86991999E-25
  -1.76400002E-02     9.87451609E-25
  -1.76299997E-02     9.87888441E-25
  -1.76199991E-02     9.88280110E-25
  -1.76100004E-02     9.88609953E-25
  -1.75999999E-02     9.88868107E-25
  -1.75899994E-02     9.89053391E-25
  -1.75800007E-02     9.89173988E-25
  -1.75700001E-02     9.89246761E-25
  -1.75599996E-02     9.89296262E-25
  -1.75500009E-02     9.89352764E-25
  -1.75400004E-02     9.89448906E-25
  -1.75299998E-02     9.89616243E-25
  -1.75199993E-02     9.89881301E-25
  -1.75100006E-02     9.90262321E-25
  -1.75000001E-02     9.90765910E-25
  -1.74899995E-02     9.91386151E-25
  -1.74800009E-02     9.92103620E-25
  -1.74700003E-02     9.92886368E-25
  -1.74599998E-02     9.93692781E-25
  -1.74499992E-02     9.94474936E-25
  -1.74400005E-02     9.95183531E-25
  -1.74300000E-02     9.95773401E-25
  -1.74199995E-02     9.96208951E-25
  -1.74100008E-02     9.96469275E-25
  -1.74000002E-02     9.96551514E-25
  -1.73899997E-02     9.96472431E-25
  -1.73799992E-02     9.96267327E-25
  -1.73700005E-02     9.95986492E-25
  -1.73599999E-02     9.95690275E-25
  -1.73499994E-02     9.95441784E-25
  -1.73400007E-02     9.95299592E-25
  -1.73300002E-02     9.95310439E-25
  -1.73199996E-02     9.95502822E-25
  -1.73099991E-02     9.95882954E-25
  -1.73000004E-02     9.96433382E-25
  -1.72899999E-02     9.97113972E-25
  -1.72799993E-02     9.97866151E-25
  -1.72700007E-02     9.98620105E-25
  -1.72600001E-02     9.99302864E-25
  -1.72499996E-02     9.99847178E-25
  -1.72400009E-02     1.00019980E-24
  -1.72300003E-02     1.00032819E-24
  -1.72199998E-02     1.00022544E-24
  -1.72099993E-02     9.99911470E-25
  -1.72000006E-02     9.99431547E-25
  -1.71900000E-02     9.98851832E-25
  -1.71799995E-02     9.98251411E-25
  -1.71700008E-02     9.97713408E-25
  -1.71600003E-02     9.97314441E-25
  -1.71499997E-02     9.97115352E-25
  -1.71399992E-02     9.97153711E-25
  -1.71300005E-02     9.97438588E-25
  -1.71200000E-02     9.97949376E-25
  -1.71099994E-02     9.98637657E-25
  -1.71000008E-02     9.99432927E-25
  -1.70900002E-02     1.00025068E-24
  -1.70799997E-02     1.00100325E-24
  -1.70699991E-02     1.00161008E-24
  -1.70600004E-02     1.00200806E-24
  -1.70499999E-02     1.00215884E-24
  -1.70399994E-02     1.00205392E-24
  -1.70300007E-02     1.00171520E-24
  -1.70200001E-02     1.00119209E-24
  -1.70099996E-02     1.00055528E-24
  -1.70000009E-02     9.99888297E-25
  -1.69900004E-02     9.99277522E-25
  -1.69799998E-02     9.98801641E-25
  -1.69699993E-02     9.98522286E-25
  -1.69600006E-02     9.98477321E-25
  -1.69500001E-02     9.98676114E-25
  -1.69399995E-02     9.99098943E-25
  -1.69300009E-02     9.99699759E-25
  -1.69200003E-02     1.00041279E-24
  -1.69099998E-02     1.00116083E-24
  -1.68999992E-02     1.00186538E-24
  -1.68900006E-02     1.00245653E-24
  -1.68800000E-02     1.00288163E-24
  -1.68699995E-02     1.00311089E-24
  -1.68600008E-02     1.00314097E-24
  -1.68500002E-02     1.00299434E-24
  -1.68399997E-02     1.00271597E-24
  -1.68299992E-02     1.00236739E-24
  -1.68200005E-02     1.00201881E-24
  -1.68099999E-02     1.00174074E-24
  -1.67999994E-02     1.00159529E-24
  -1.67900007E-02     1.00162902E-24
  -1.67800002E-02     1.00186844E-24
  -1.67699996E-02     1.00231720E-24
  -1.67599991E-02     1.00295736E-24
  -1.67500004E-02     1.00375184E-24
  -1.67399999E-02     1.00464947E-24
  -1.67299993E-02     1.00559176E-24
  -1.67200007E-02     1.00651936E-24
  -1.67100001E-02     1.00737912E-24
  -1.66999996E-02     1.00812972E-24
  -1.66900009E-02     1.00874513E-24
  -1.66800003E-02     1.00921618E-24
  -1.66699998E-02     1.00955017E-24
  -1.66599993E-02     1.00976839E-24
  -1.66500006E-02     1.00990269E-24
  -1.66400000E-02     1.00999055E-24
  -1.66299995E-02     1.01007012E-24
  -1.66200008E-02     1.01017603E-24
  -1.66100003E-02     1.01033538E-24
  -1.65999997E-02     1.01056573E-24
  -1.65899992E-02     1.01087378E-24
  -1.65800005E-02     1.01125628E-24
  -1.65700000E-02     1.01170149E-24
  -1.65599994E-02     1.01219157E-24
  -1.65500008E-02     1.01270472E-24
  -1.65400002E-02     1.01321748E-24
  -1.65299997E-02     1.01370717E-24
  -1.65199991E-02     1.01415366E-24
  -1.65100005E-02     1.01454050E-24
  -1.64999999E-02     1.01485536E-24
  -1.64899994E-02     1.01509034E-24
  -1.64800007E-02     1.01524150E-24
  -1.64700001E-02     1.01530806E-24
  -1.64599996E-02     1.01529209E-24
  -1.64500009E-02     1.01519812E-24
  -1.64400004E-02     1.01503314E-24
  -1.64299998E-02     1.01480684E-24
  -1.64199993E-02     1.01453182E-24
  -1.64100006E-02     1.01422289E-24
  -1.64000001E-02     1.01389718E-24
  -1.63899995E-02     1.01357286E-24
  -1.63800009E-02     1.01326827E-24
  -1.63700003E-02     1.01300074E-24
  -1.63599998E-02     1.01278489E-24
  -1.63499992E-02     1.01263037E-24
  -1.63400006E-02     1.01254054E-24
  -1.63300000E-02     1.01251056E-24
  -1.63199995E-02     1.01252733E-24
  -1.63100008E-02     1.01257003E-24
  -1.63000003E-02     1.01261213E-24
  -1.62899997E-02     1.01262406E-24
  -1.62799992E-02     1.01257703E-24
  -1.62700005E-02     1.01244637E-24
  -1.62599999E-02     1.01221573E-24
  -1.62499994E-02     1.01187938E-24
  -1.62400007E-02     1.01144471E-24
  -1.62300002E-02     1.01093186E-24
  -1.62199996E-02     1.01037265E-24
  -1.62099991E-02     1.00980773E-24
  -1.62000004E-02     1.00928186E-24
  -1.61899999E-02     1.00883861E-24
  -1.61799993E-02     1.00851528E-24
  -1.61700007E-02     1.00833818E-24
  -1.61600001E-02     1.00831866E-24
  -1.61499996E-02     1.00845158E-24
  -1.61400009E-02     1.00871545E-24
  -1.61300004E-02     1.00907448E-24
  -1.61199998E-02     1.00948292E-24
  -1.61099993E-02     1.00988997E-24
  -1.61000006E-02     1.01024634E-24
  -1.60900000E-02     1.01050962E-24
  -1.60799995E-02     1.01065023E-24
  -1.60700008E-02     1.01065477E-24
  -1.60600003E-02     1.01052875E-24
  -1.60499997E-02     1.01029633E-24
  -1.60399992E-02     1.00999745E-24
  -1.60300005E-02     1.00968378E-24
  -1.60200000E-02     1.00941192E-24
  -1.60099994E-02     1.00923679E-24
  -1.60000008E-02     1.00920435E-24
  -1.59900002E-02     1.00934556E-24
  -1.59799997E-02     1.00967175E-24
  -1.59699991E-02     1.01017327E-24
  -1.59600005E-02     1.01081974E-24
  -1.59499999E-02     1.01156364E-24
  -1.59399994E-02     1.01234579E-24
  -1.59300007E-02     1.01310241E-24
  -1.59200002E-02     1.01377284E-24
  -1.59099996E-02     1.01430621E-24
  -1.59000009E-02     1.01466761E-24
  -1.58900004E-02     1.01484185E-24
  -1.58799998E-02     1.01483445E-24
  -1.58699993E-02     1.01467116E-24
  -1.58600006E-02     1.01439348E-24
  -1.58500001E-02     1.01405328E-24
  -1.58399995E-02     1.01370618E-24
  -1.58300009E-02     1.01340405E-24
  -1.58200003E-02     1.01318849E-24
  -1.58099998E-02     1.01308643E-24
  -1.57999992E-02     1.01310665E-24
  -1.57900006E-02     1.01323997E-24
  -1.57800000E-02     1.01346094E-24
  -1.57699995E-02     1.01373202E-24
  -1.57600008E-02     1.01400920E-24
  -1.57500003E-02     1.01424823E-24
  -1.57399997E-02     1.01441093E-24
  -1.57299992E-02     1.01446970E-24
  -1.57200005E-02     1.01441073E-24
  -1.57099999E-02     1.01423462E-24
  -1.56999994E-02     1.01395556E-24
  -1.56900007E-02     1.01359900E-24
  -1.56800002E-02     1.01319766E-24
  -1.56699996E-02     1.01278785E-24
  -1.56599991E-02     1.01240407E-24
  -1.56500004E-02     1.01207521E-24
  -1.56399999E-02     1.01182031E-24
  -1.56299993E-02     1.01164656E-24
  -1.56199997E-02     1.01154815E-24
  -1.56100001E-02     1.01150773E-24
  -1.55999996E-02     1.01149905E-24
  -1.55900000E-02     1.01149106E-24
  -1.55800004E-02     1.01145211E-24
  -1.55699998E-02     1.01135469E-24
  -1.55600002E-02     1.01117916E-24
  -1.55499997E-02     1.01091687E-24
  -1.55400001E-02     1.01057125E-24
  -1.55300004E-02     1.01015700E-24
  -1.55199999E-02     1.00969719E-24
  -1.55100003E-02     1.00921983E-24
  -1.54999997E-02     1.00875312E-24
  -1.54900001E-02     1.00832181E-24
  -1.54799996E-02     1.00794385E-24
  -1.54700000E-02     1.00762880E-24
  -1.54600004E-02     1.00737764E-24
  -1.54499998E-02     1.00718329E-24
  -1.54400002E-02     1.00703271E-24
  -1.54299997E-02     1.00690955E-24
  -1.54200001E-02     1.00679675E-24
  -1.54100005E-02     1.00668019E-24
  -1.53999999E-02     1.00655092E-24
  -1.53900003E-02     1.00640705E-24
  -1.53799998E-02     1.00625381E-24
  -1.53700002E-02     1.00610314E-24
  -1.53599996E-02     1.00597120E-24
  -1.53500000E-02     1.00587555E-24
  -1.53400004E-02     1.00583177E-24
  -1.53299998E-02     1.00585051E-24
  -1.53200002E-02     1.00593472E-24
  -1.53099997E-02     1.00607849E-24
  -1.53000001E-02     1.00626713E-24
  -1.52899995E-02     1.00647844E-24
  -1.52799999E-02     1.00668542E-24
  -1.52700003E-02     1.00685986E-24
  -1.52599998E-02     1.00697651E-24
  -1.52500002E-02     1.00701684E-24
  -1.52399996E-02     1.00697178E-24
  -1.52300000E-02     1.00684388E-24
  -1.52200004E-02     1.00664686E-24
  -1.52099999E-02     1.00640468E-24
  -1.52000003E-02     1.00614771E-24
  -1.51899997E-02     1.00590928E-24
  -1.51800001E-02     1.00572113E-24
  -1.51699996E-02     1.00560902E-24
  -1.51600000E-02     1.00558920E-24
  -1.51500003E-02     1.00566601E-24
  -1.51399998E-02     1.00583098E-24
  -1.51300002E-02     1.00606340E-24
  -1.51199996E-02     1.00633270E-24
  -1.51100000E-02     1.00660239E-24
  -1.51000004E-02     1.00683520E-24
  -1.50899999E-02     1.00699781E-24
  -1.50800003E-02     1.00706604E-24
  -1.50699997E-02     1.00702749E-24
  -1.50600001E-02     1.00688401E-24
  -1.50499996E-02     1.00665130E-24
  -1.50400000E-02     1.00635666E-24
  -1.50300004E-02     1.00603628E-24
  -1.50199998E-02     1.00572961E-24
  -1.50100002E-02     1.00547481E-24
  -1.49999997E-02     1.00530353E-24
  -1.49900001E-02     1.00523599E-24
  -1.49800004E-02     1.00527839E-24
  -1.49699999E-02     1.00542156E-24
  -1.49600003E-02     1.00564156E-24
  -1.49499997E-02     1.00590277E-24
  -1.49400001E-02     1.00616211E-24
  -1.49299996E-02     1.00637510E-24
  -1.49200000E-02     1.00650211E-24
  -1.49100004E-02     1.00651384E-24
  -1.48999998E-02     1.00639601E-24
  -1.48900002E-02     1.00615156E-24
  -1.48799997E-02     1.00579963E-24
  -1.48700001E-02     1.00537315E-24
  -1.48600005E-02     1.00491443E-24
  -1.48499999E-02     1.00446882E-24
  -1.48400003E-02     1.00407942E-24
  -1.48299998E-02     1.00378103E-24
  -1.48200002E-02     1.00359624E-24
  -1.48099996E-02     1.00353195E-24
  -1.48000000E-02     1.00357859E-24
  -1.47900004E-02     1.00371141E-24
  -1.47799999E-02     1.00389344E-24
  -1.47700002E-02     1.00407971E-24
  -1.47599997E-02     1.00422319E-24
  -1.47500001E-02     1.00428008E-24
  -1.47399995E-02     1.00421569E-24
  -1.47299999E-02     1.00400852E-24
  -1.47200003E-02     1.00365314E-24
  -1.47099998E-02     1.00316158E-24
  -1.47000002E-02     1.00256214E-24
  -1.46899996E-02     1.00189555E-24
  -1.46800000E-02     1.00121033E-24
  -1.46700004E-02     1.00055607E-24
  -1.46599999E-02     9.99977636E-25
  -1.46500003E-02     9.99509249E-25
  -1.46399997E-02     9.99171025E-25
  -1.46300001E-02     9.98966710E-25
  -1.46199996E-02     9.98884274E-25
  -1.46100000E-02     9.98897685E-25
  -1.46000003E-02     9.98971049E-25
  -1.45899998E-02     9.99063149E-25
  -1.45800002E-02     9.99132963E-25
  -1.45699997E-02     9.99144993E-25
  -1.45600000E-02     9.99073207E-25
  -1.45500004E-02     9.98904588E-25
  -1.45399999E-02     9.98639925E-25
  -1.45300003E-02     9.98294108E-25
  -1.45199997E-02     9.97893662E-25
  -1.45100001E-02     9.97472805E-25
  -1.44999996E-02     9.97069303E-25
  -1.44900000E-02     9.96718260E-25
  -1.44800004E-02     9.96447384E-25
  -1.44699998E-02     9.96272455E-25
  -1.44600002E-02     9.96195738E-25
  -1.44499997E-02     9.96205401E-25
  -1.44400001E-02     9.96278174E-25
  -1.44300004E-02     9.96382501E-25
  -1.44199999E-02     9.96482883E-25
  -1.44100003E-02     9.96544612E-25
  -1.43999998E-02     9.96538103E-25
  -1.43900001E-02     9.96441862E-25
  -1.43799996E-02     9.96244746E-25
  -1.43700000E-02     9.95947345E-25
  -1.43600004E-02     9.95560803E-25
  -1.43499998E-02     9.95105433E-25
  -1.43400002E-02     9.94607859E-25
  -1.43299997E-02     9.94097466E-25
  -1.43200001E-02     9.93602851E-25
  -1.43100005E-02     9.93148565E-25
  -1.42999999E-02     9.92752261E-25
  -1.42900003E-02     9.92423011E-25
  -1.42799998E-02     9.92160418E-25
  -1.42700002E-02     9.91955610E-25
  -1.42599996E-02     9.91792809E-25
  -1.42500000E-02     9.91651998E-25
  -1.42400004E-02     9.91512566E-25
  -1.42299999E-02     9.91356175E-25
  -1.42200002E-02     9.91169609E-25
  -1.42099997E-02     9.90946164E-25
  -1.42000001E-02     9.90686235E-25
  -1.41899996E-02     9.90396230E-25
  -1.41799999E-02     9.90087489E-25
  -1.41700003E-02     9.89773424E-25
  -1.41599998E-02     9.89467247E-25
  -1.41500002E-02     9.89180398E-25
  -1.41399996E-02     9.88920370E-25
  -1.41300000E-02     9.88689924E-25
  -1.41200004E-02     9.88486989E-25
  -1.41099999E-02     9.88304368E-25
  -1.41000003E-02     9.88131114E-25
  -1.40899997E-02     9.87954212E-25
  -1.40800001E-02     9.87761237E-25
  -1.40699996E-02     9.87542427E-25
  -1.40600000E-02     9.87292456E-25
  -1.40500003E-02     9.87011918E-25
  -1.40399998E-02     9.86706727E-25
  -1.40300002E-02     9.86386746E-25
  -1.40199997E-02     9.86063806E-25
  -1.40100000E-02     9.85749543E-25
  -1.40000004E-02     9.85452636E-25
  -1.39899999E-02     9.85177027E-25
  -1.39800003E-02     9.84921141E-25
  -1.39699997E-02     9.84677087E-25
  -1.39600001E-02     9.84432244E-25
  -1.39499996E-02     9.84170638E-25
  -1.39400000E-02     9.83875703E-25
  -1.39300004E-02     9.83532252E-25
  -1.39199998E-02     9.83129342E-25
  -1.39100002E-02     9.82661350E-25