  -2.19999999E-02     1.00000002E-24
  -2.19899993E-02     1.00000002E-24
  -2.19800007E-02     1.00000002E-24
  -2.19700001E-02     1.00000012E-24
  -2.19599996E-02     1.00000022E-24
  -2.19500009E-02     1.00000022E-24
  -2.19400004E-02     1.00000022E-24
  -2.19299998E-02     1.00000022E-24
  -2.19199993E-02     1.00000022E-24
  -2.19100006E-02     1.00000012E-24
  -2.19000001E-02     1.00000012E-24
  -2.18899995E-02     1.00000012E-24
  -2.18800008E-02     1.00000012E-24
  -2.18700003E-02     1.00000012E-24
  -2.18599997E-02     1.00000022E-24
  -2.18499992E-02     1.00000022E-24
  -2.18400005E-02     1.00000022E-24
  -2.18300000E-02     1.00000012E-24
  -2.18199994E-02     9.99999921E-25
  -2.18100008E-02     9.99999625E-25
  -2.18000002E-02     9.99999428E-25
  -2.17899997E-02     9.99999428E-25
  -2.17799991E-02     9.99999625E-25
  -2.17700005E-02     1.00000002E-24
  -2.17599999E-02     1.00000051E-24
  -2.17499994E-02     1.00000101E-24
  -2.17400007E-02     1.00000120E-24
  -2.17300002E-02     1.00000120E-24
  -2.17199996E-02     1.00000101E-24
  -2.17099991E-02     1.00000081E-24
  -2.17000004E-02     1.00000071E-24
  -2.16899998E-02     1.00000101E-24
  -2.16799993E-02     1.00000170E-24
  -2.16700006E-02     1.00000278E-24
  -2.16600001E-02     1.00000387E-24
  -2.16499995E-02     1.00000426E-24
  -2.16400009E-02     1.00000347E-24
  -2.16300003E-02     1.00000110E-24
  -2.16199998E-02     9.99996963E-25
  -2.16099992E-02     9.99991638E-25
  -2.16000006E-02     9.99986116E-25
  -2.15900000E-02     9.99981974E-25
  -2.15799995E-02     9.99980890E-25
  -2.15700008E-02     9.99984341E-25
  -2.15600003E-02     9.99993413E-25
  -2.15499997E-02     1.00000751E-24
  -2.15399992E-02     1.00002467E-24
  -2.15300005E-02     1.00004114E-24
  -2.15200000E-02     1.00005228E-24
  -2.15099994E-02     1.00005297E-24
  -2.15000007E-02     1.00003887E-24
  -2.14900002E-02     1.00000742E-24
  -2.14799996E-02     9.99959393E-25
  -2.14699991E-02     9.99898848E-25
  -2.14600004E-02     9.99834063E-25
  -2.14499999E-02     9.99776180E-25
  -2.14399993E-02     9.99738315E-25
  -2.14300007E-02     9.99733286E-25
  -2.14200001E-02     9.99770954E-25
  -2.14099996E-02     9.99856447E-25
  -2.14000009E-02     9.99987694E-25
  -2.13900004E-02     1.00015444E-24
  -2.13799998E-02     1.00033893E-24
  -2.13699993E-02     1.00051712E-24
  -2.13600006E-02     1.00066128E-24
  -2.13500001E-02     1.00074332E-24
  -2.13399995E-02     1.00073908E-24
  -2.13300008E-02     1.00063170E-24
  -2.13200003E-02     1.00041476E-24
  -2.13099997E-02     1.00009380E-24
  -2.12999992E-02     9.99686546E-25
  -2.12900005E-02     9.99221019E-25
  -2.12800000E-02     9.98732024E-25
  -2.12699994E-02     9.98256834E-25
  -2.12600008E-02     9.97829370E-25
  -2.12500002E-02     9.97474679E-25
  -2.12399997E-02     9.97204888E-25
  -2.12299991E-02     9.97015660E-25
  -2.12200005E-02     9.96885498E-25
  -2.12099999E-02     9.96777621E-25
  -2.11999994E-02     9.96643614E-25
  -2.11900007E-02     9.96430128E-25
  -2.11800002E-02     9.96086283E-25
  -2.11699996E-02     9.95571552E-25
  -2.11599991E-02     9.94863450E-25
  -2.11500004E-02     9.93962768E-25
  -2.11399999E-02     9.92896722E-25
  -2.11299993E-02     9.91717769E-25
  -2.11200006E-02     9.90499965E-25
  -2.11100001E-02     9.89330873E-25
  -2.10999995E-02     9.88302198E-25
  -2.10900009E-02     9.87498152E-25
  -2.10800003E-02     9.86984012E-25
  -2.10699998E-02     9.86797348E-25
  -2.10599992E-02     9.86941512E-25
  -2.10500006E-02     9.87382485E-25
  -2.10400000E-02     9.88052820E-25
  -2.10299995E-02     9.88857162E-25
  -2.10200008E-02     9.89684283E-25
  -2.10100003E-02     9.90419994E-25
  -2.09999997E-02     9.90962336E-25
  -2.09899992E-02     9.91234789E-25
  -2.09800005E-02     9.91197318E-25
  -2.09700000E-02     9.90853473E-25
  -2.09599994E-02     9.90251474E-25
  -2.09500007E-02     9.89480954E-25
  -2.09400002E-02     9.88663004E-25
  -2.09299996E-02     9.87937449E-25
  -2.09199991E-02     9.87446777E-25
  -2.09100004E-02     9.87319278E-25
  -2.08999999E-02     9.87654149E-25
  -2.08899993E-02     9.88508781E-25
  -2.08800007E-02     9.89891655E-25
  -2.08700001E-02     9.91760762E-25
  -2.08599996E-02     9.94026962E-25
  -2.08500009E-02     9.96564629E-25
  -2.08400004E-02     9.99224865E-25
  -2.08299998E-02     1.00185256E-24
  -2.08199993E-02     1.00430365E-24
  -2.08100006E-02     1.00646188E-24
  -2.08000001E-02     1.00825121E-24
  -2.07899995E-02     1.00964434E-24
  -2.07800008E-02     1.01066443E-24
  -2.07700003E-02     1.01138111E-24
  -2.07599998E-02     1.01190058E-24
  -2.07499992E-02     1.01235013E-24
  -2.07400005E-02     1.01286180E-24
  -2.07300000E-02     1.01355285E-24
  -2.07199994E-02     1.01451013E-24
  -2.07100008E-02     1.01577704E-24
  -2.07000002E-02     1.01734589E-24
  -2.06899997E-02     1.01915691E-24
  -2.06799991E-02     1.02110353E-24
  -2.06700005E-02     1.02304442E-24
  -2.06599999E-02     1.02481877E-24
  -2.06499994E-02     1.02626534E-24
  -2.06400007E-02     1.02724047E-24
  -2.06300002E-02     1.02763480E-24
  -2.06199996E-02     1.02738542E-24
  -2.06099991E-02     1.02648287E-24
  -2.06000004E-02     1.02497062E-24
  -2.05899999E-02     1.02294009E-24
  -2.05799993E-02     1.02051849E-24
  -2.05700006E-02     1.01785460E-24
  -2.05600001E-02     1.01510089E-24
  -2.05499995E-02     1.01239697E-24
  -2.05400009E-02     1.00985457E-24
  -2.05300003E-02     1.00754636E-24
  -2.05199998E-02     1.00550025E-24
  -2.05099992E-02     1.00369919E-24
  -2.05000006E-02     1.00208616E-24
  -2.04900000E-02     1.00057401E-24
  -2.04799995E-02     9.99058120E-25
  -2.04700008E-02     9.97431390E-25
  -2.04600003E-02     9.95598472E-25
  -2.04499997E-02     9.93488071E-25
  -2.04399992E-02     9.91062620E-25
  -2.04300005E-02     9.88322906E-25
  -2.04200000E-02     9.85308077E-25
  -2.04099994E-02     9.82091595E-25
  -2.04000007E-02     9.78773153E-25
  -2.03900002E-02     9.75467629E-25
  -2.03799997E-02     9.72292957E-25
  -2.03699991E-02     9.69358591E-25
  -2.03600004E-02     9.66755547E-25
  -2.03499999E-02     9.64548610E-25
  -2.03399993E-02     9.62772885E-25
  -2.03300007E-02     9.61432906E-25
  -2.03200001E-02     9.60505402E-25
  -2.03099996E-02     9.59944621E-25
  -2.03000009E-02     9.59690115E-25
  -2.02900004E-02     9.59674535E-25
  -2.02799998E-02     9.59831814E-25
  -2.02699993E-02     9.60103281E-25
  -2.02600006E-02     9.60443674E-25
  -2.02500001E-02     9.60824004E-25
  -2.02399995E-02     9.61232929E-25
  -2.02300008E-02     9.61675973E-25
  -2.02200003E-02     9.62173449E-25
  -2.02099998E-02     9.62757009E-25
  -2.01999992E-02     9.63465702E-25
  -2.01900005E-02     9.64341041E-25
  -2.01800000E-02     9.65421978E-25
  -2.01699995E-02     9.66740066E-25
  -2.01600008E-02     9.68315421E-25
  -2.01500002E-02     9.70153566E-25
  -2.01399997E-02     9.72242864E-25
  -2.01299991E-02     9.74553536E-25
  -2.01200005E-02     9.77038744E-25
  -2.01099999E-02     9.79636463E-25
  -2.00999994E-02     9.82273230E-25
  -2.00900007E-02     9.84869174E-25
  -2.00800002E-02     9.87344324E-25
  -2.00699996E-02     9.89624526E-25
  -2.00599991E-02     9.91647462E-25
  -2.00500004E-02     9.93368362E-25
  -2.00399999E-02     9.94763265E-25
  -2.00299993E-02     9.95831481E-25
  -2.00200006E-02     9.96595296E-25
  -2.00100001E-02     9.97097504E-25
  -1.99999996E-02     9.97397074E-25
  -1.99900009E-02     9.97562932E-25
  -1.99800003E-02     9.97666569E-25
  -1.99699998E-02     9.97773953E-25
  -1.99599992E-02     9.97938036E-25
  -1.99500006E-02     9.98192148E-25
  -1.99400000E-02     9.98545459E-25
  -1.99299995E-02     9.98981502E-25
  -1.99200008E-02     9.99458467E-25
  -1.99100003E-02     9.99914527E-25
  -1.98999997E-02     1.00027366E-24
  -1.98899992E-02     1.00045539E-24
  -1.98800005E-02     1.00038469E-24
  -1.98700000E-02     1.00000179E-24
  -1.98599994E-02     9.99270816E-25
  -1.98500007E-02     9.98185935E-25
  -1.98400002E-02     9.96773973E-25
  -1.98299997E-02     9.95093305E-25
  -1.98199991E-02     9.93228339E-25
  -1.98100004E-02     9.91281233E-25
  -1.97999999E-02     9.89360159E-25
  -1.97899994E-02     9.87566980E-25
  -1.97800007E-02     9.85985413E-25
  -1.97700001E-02     9.84670579E-25
  -1.97599996E-02     9.83641214E-25
  -1.97500009E-02     9.82876512E-25
  -1.97400004E-02     9.82316716E-25
  -1.97299998E-02     9.81868545E-25
  -1.97199993E-02     9.81414457E-25
  -1.97100006E-02     9.80825375E-25
  -1.97000001E-02     9.79974588E-25
  -1.96899995E-02     9.78752741E-25
  -1.96800008E-02     9.77080455E-25
  -1.96700003E-02     9.74918976E-25
  -1.96599998E-02     9.72276292E-25
  -1.96499992E-02     9.69209299E-25
  -1.96400005E-02     9.65819268E-25
  -1.96300000E-02     9.62243658E-25
  -1.96199995E-02     9.58643001E-25
  -1.96100008E-02     9.55185226E-25
  -1.96000002E-02     9.52028007E-25
  -1.95899997E-02     9.49303282E-25
  -1.95799991E-02     9.47102952E-25
  -1.95700005E-02     9.45469911E-25
  -1.95599999E-02     9.44393905E-25
  -1.95499994E-02     9.43814683E-25
  -1.95400007E-02     9.43629301E-25
  -1.95300002E-02     9.43706018E-25
  -1.95199996E-02     9.43900373E-25
  -1.95099991E-02     9.44074021E-25
  -1.95000004E-02     9.44111887E-25
  -1.94899999E-02     9.43937056E-25
  -1.94799993E-02     9.43520636E-25
  -1.94700006E-02     9.42885898E-25
  -1.94600001E-02     9.42106307E-25
  -1.94499996E-02     9.41296048E-25
  -1.94400009E-02     9.40596230E-25
  -1.94300003E-02     9.40156637E-25
  -1.94199998E-02     9.40115715E-25
  -1.94099993E-02     9.40582129E-25
  -1.94000006E-02     9.41618396E-25
  -1.93900000E-02     9.43229842E-25
  -1.93799995E-02     9.45360062E-25
  -1.93700008E-02     9.47893686E-25
  -1.93600003E-02     9.50666532E-25
  -1.93499997E-02     9.53481878E-25
  -1.93399992E-02     9.56130479E-25
  -1.93300005E-02     9.58413935E-25
  -1.93200000E-02     9.60166981E-25
  -1.93099994E-02     9.61275824E-25
  -1.93000007E-02     9.61692638E-25
  -1.92900002E-02     9.61439907E-25
  -1.92799997E-02     9.60610420E-25
  -1.92699991E-02     9.59355243E-25
  -1.92600004E-02     9.57868043E-25
  -1.92499999E-02     9.56361516E-25
  -1.92399994E-02     9.55043724E-25
  -1.92300007E-02     9.54093147E-25
  -1.92200001E-02     9.53637974E-25
  -1.92099996E-02     9.53741315E-25
  -1.92000009E-02     9.54393604E-25
  -1.91900004E-02     9.55513984E-25
  -1.91799998E-02     9.56960064E-25
  -1.91699993E-02     9.58545478E-25
  -1.91600006E-02     9.60061865E-25
  -1.91500001E-02     9.61304420E-25
  -1.91399995E-02     9.62097028E-25
  -1.91300008E-02     9.62313176E-25
  -1.91200003E-02     9.61892220E-25
  -1.91099998E-02     9.60847374E-25
  -1.90999992E-02     9.59265116E-25
  -1.90900005E-02     9.57295232E-25
  -1.90800000E-02     9.55135035E-25
  -1.90699995E-02     9.53005998E-25
  -1.90600008E-02     9.51128607E-25
  -1.90500002E-02     9.49696430E-25
  -1.90399997E-02     9.48853730E-25
  -1.90299992E-02     9.48678603E-25
  -1.90200005E-02     9.49173021E-25
  -1.90099999E-02     9.50261846E-25
  -1.89999994E-02     9.51801308E-25
  -1.89900007E-02     9.53594389E-25
  -1.89800002E-02     9.55413207E-25
  -1.89699996E-02     9.57025047E-25
  -1.89599991E-02     9.58218199E-25
  -1.89500004E-02     9.58826608E-25
  -1.89399999E-02     9.58748806E-25
  -1.89299993E-02     9.57959946E-25
  -1.89200006E-02     9.56515245E-25
  -1.89100001E-02     9.54544276E-25
  -1.88999996E-02     9.52237253E-25
  -1.88900009E-02     9.49824226E-25
  -1.88800003E-02     9.47550236E-25
  -1.88699998E-02     9.45647799E-25
  -1.88599993E-02     9.44312159E-25
  -1.88500006E-02     9.43678999E-25
  -1.88400000E-02     9.43810148E-25
  -1.88299995E-02     9.44686473E-25
  -1.88200008E-02     9.46210355E-25
  -1.88100003E-02     9.48216231E-25
  -1.87999997E-02     9.50489038E-25
  -1.87899992E-02     9.52787089E-25
  -1.87800005E-02     9.54869090E-25
  -1.87700000E-02     9.56519190E-25
  -1.87599994E-02     9.57570741E-25
  -1.87500007E-02     9.57923066E-25
  -1.87400002E-02     9.57551316E-25
  -1.87299997E-02     9.56507357E-25
  -1.87199991E-02     9.54912477E-25
  -1.87100004E-02     9.52942297E-25
  -1.86999999E-02     9.50805865E-25
  -1.86899994E-02     9.48721398E-25
  -1.86800007E-02     9.46892326E-25
  -1.86700001E-02     9.45484998E-25
  -1.86599996E-02     9.44610940E-25
  -1.86500009E-02     9.44317582E-25
  -1.86400004E-02     9.44584908E-25
  -1.86299998E-02     9.45331170E-25
  -1.86199993E-02     9.46425616E-25
  -1.86100006E-02     9.47705050E-25
  -1.86000001E-02     9.48995626E-25
  -1.85899995E-02     9.50132473E-25
  -1.85800008E-02     9.50979513E-25
  -1.85700003E-02     9.51443856E-25
  -1.85599998E-02     9.51484384E-25
  -1.85499992E-02     9.51115098E-25
  -1.85400005E-02     9.50400883E-25
  -1.85300000E-02     9.49448334E-25
  -1.85199995E-02     9.48391654E-25
  -1.85100008E-02     9.47376588E-25
  -1.85000002E-02     9.46543945E-25
  -1.84899997E-02     9.46013337E-25
  -1.84799992E-02     9.45871047E-25
  -1.84700005E-02     9.46160460E-25
  -1.84599999E-02     9.46878521E-25
  -1.84499994E-02     9.47975826E-25
  -1.84400007E-02     9.49362052E-25
  -1.84300002E-02     9.50915023E-25
  -1.84199996E-02     9.52492646E-25
  -1.84099991E-02     9.53946320E-25
  -1.84000004E-02     9.55134739E-25
  -1.83899999E-02     9.55936419E-25
  -1.83799993E-02     9.56260641E-25
  -1.83700006E-02     9.56055044E-25
  -1.83600001E-02     9.55309767E-25
  -1.83499996E-02     9.54059127E-25
  -1.83400009E-02     9.52377473E-25
  -1.83300003E-02     9.50373865E-25
  -1.83199998E-02     9.48182409E-25
  -1.83099993E-02     9.45951412E-25
  -1.83000006E-02     9.43830362E-25
  -1.82900000E-02     9.41957804E-25
  -1.82799995E-02     9.40448910E-25
  -1.82700008E-02     9.39386216E-25
  -1.82600003E-02     9.38812418E-25
  -1.82499997E-02     9.38726432E-25
  -1.82399992E-02     9.39084575E-25
  -1.82300005E-02     9.39804608E-25
  -1.82200000E-02     9.40774611E-25
  -1.82099994E-02     9.41864422E-25
  -1.82000007E-02     9.42939935E-25
  -1.81900002E-02     9.43877792E-25
  -1.81799997E-02     9.44578991E-25
  -1.81699991E-02     9.44980521E-25
  -1.81600004E-02     9.45063549E-25
  -1.81499999E-02     9.44856374E-25
  -1.81399994E-02     9.44432164E-25
  -1.81300007E-02     9.43901951E-25
  -1.81200001E-02     9.43403194E-25
  -1.81099996E-02     9.43083508E-25
  -1.81000009E-02     9.43083705E-25
  -1.80900004E-02     9.43521030E-25
  -1.80799998E-02     9.44472988E-25
  -1.80699993E-02     9.45965809E-25
  -1.80600006E-02     9.47968529E-25
  -1.80500001E-02     9.50391417E-25
  -1.80399995E-02     9.53092772E-25
  -1.80300009E-02     9.55891158E-25
  -1.80200003E-02     9.58581864E-25
  -1.80099998E-02     9.60957420E-25
  -1.79999992E-02     9.62829978E-25
  -1.79900005E-02     9.64050741E-25
  -1.79800000E-02     9.64528593E-25
  -1.79699995E-02     9.64241349E-25
  -1.79600008E-02     9.63240383E-25
  -1.79500002E-02     9.61648166E-25
  -1.79399997E-02     9.59646629E-25
  -1.79299992E-02     9.57459512E-25
  -1.79200005E-02     9.55328700E-25
  -1.79099999E-02     9.53488682E-25
  -1.78999994E-02     9.52140124E-25
  -1.78900007E-02     9.51427191E-25
  -1.78800002E-02     9.51420190E-25
  -1.78699996E-02     9.52106893E-25
  -1.78599991E-02     9.53391652E-25
  -1.78500004E-02     9.55104861E-25
  -1.78399999E-02     9.57021102E-25
  -1.78299993E-02     9.58882913E-25
  -1.78200006E-02     9.60429869E-25
  -1.78100001E-02     9.61427088E-25
  -1.77999996E-02     9.61691356E-25
  -1.77900009E-02     9.61111642E-25
  -1.77800003E-02     9.59661814E-25
  -1.77699998E-02     9.57403108E-25
  -1.77599993E-02     9.54477223E-25
  -1.77500006E-02     9.51091235E-25
  -1.77400000E-02     9.47494917E-25
  -1.77299995E-02     9.43953030E-25
  -1.77200008E-02     9.40717813E-25
  -1.77100003E-02     9.38002258E-25
  -1.76999997E-02     9.35959700E-25
  -1.76899992E-02     9.34668926E-25
  -1.76800005E-02     9.34129542E-25
  -1.76700000E-02     9.34265128E-25
  -1.76599994E-02     9.34935955E-25
  -1.76500008E-02     9.35956840E-25
  -1.76400002E-02     9.37120903E-25
  -1.76299997E-02     9.38223829E-25
  -1.76199991E-02     9.39086153E-25
  -1.76100004E-02     9.39573669E-25
  -1.75999999E-02     9.39609562E-25
  -1.75899994E-02     9.39181112E-25
  -1.75800007E-02     9.38337524E-25
  -1.75700001E-02     9.37182434E-25
  -1.75599996E-02     9.35859810E-25
  -1.75500009E-02     9.34536299E-25
  -1.75400004E-02     9.33383576E-25
  -1.75299998E-02     9.32559117E-25
  -1.75199993E-02     9.32191508E-25
  -1.75100006E-02     9.32368805E-25
  -1.75000001E-02     9.33132028E-25
  -1.74899995E-02     9.34473091E-25
  -1.74800009E-02     9.36336874E-25
  -1.74700003E-02     9.38628416E-25
  -1.74599998E-02     9.41221402E-25
  -1.74499992E-02     9.43969399E-25
  -1.74400005E-02     9.46717987E-25
  -1.74300000E-02     9.49315411E-25
  -1.74199995E-02     9.51623716E-25
  -1.74100008E-02     9.53527632E-25
  -1.74000002E-02     9.54941764E-25
  -1.73899997E-02     9.55816019E-25
  -1.73799992E-02     9.56138466E-25
  -1.73700005E-02     9.55936813E-25
  -1.73599999E-02     9.55276537E-25
  -1.73499994E-02     9.54256737E-25
  -1.73400007E-02     9.53004124E-25
  -1.73300002E-02     9.51664638E-25
  -1.73199996E-02     9.50392403E-25
  -1.73099991E-02     9.49338682E-25
  -1.73000004E-02     9.48638173E-25
  -1.72899999E-02     9.48397670E-25
  -1.72799993E-02     9.48684519E-25
  -1.72700007E-02     9.49517852E-25
  -1.72600001E-02     9.50863945E-25
  -1.72499996E-02     9.52635628E-25
  -1.72400009E-02     9.54697809E-25
  -1.72300003E-02     9.56877727E-25
  -1.72199998E-02     9.58981816E-25
  -1.72099993E-02     9.60814439E-25
  -1.72000006E-02     9.62199876E-25
  -1.71900000E-02     9.63002542E-25
  -1.71799995E-02     9.63145030E-25
  -1.71700008E-02     9.62620043E-25
  -1.71600003E-02     9.61494535E-25
  -1.71499997E-02     9.59904685E-25
  -1.71399992E-02     9.58043269E-25
  -1.71300005E-02     9.56138071E-25
  -1.71200000E-02     9.54425060E-25
  -1.71099994E-02     9.53119791E-25
  -1.71000008E-02     9.52389207E-25
  -1.70900002E-02     9.52328366E-25
  -1.70799997E-02     9.52946241E-25
  -1.70699991E-02     9.54160496E-25
  -1.70600004E-02     9.55804087E-25
  -1.70499999E-02     9.57642626E-25
  -1.70399994E-02     9.59400701E-25
  -1.70300007E-02     9.60794421E-25
  -1.70200001E-02     9.61565040E-25
  -1.70099996E-02     9.61511595E-25
  -1.70000009E-02     9.60516151E-25
  -1.69900004E-02     9.58560367E-25
  -1.69799998E-02     9.55730132E-25
  -1.69699993E-02     9.52207276E-25
  -1.69600006E-02     9.48250646E-25
  -1.69500001E-02     9.44167206E-25
  -1.69399995E-02     9.40278713E-25
  -1.69300009E-02     9.36885329E-25
  -1.69200003E-02     9.34233475E-25
  -1.69099998E-02     9.32489303E-25
  -1.68999992E-02     9.31723122E-25
  -1.68900006E-02     9.31903870E-25
  -1.68800000E-02     9.32906413E-25
  -1.68699995E-02     9.34529199E-25
  -1.68600008E-02     9.36519692E-25
  -1.68500002E-02     9.38605243E-25
  -1.68399997E-02     9.40524838E-25
  -1.68299992E-02     9.42058580E-25
  -1.68200005E-02     9.43050474E-25
  -1.68099999E-02     9.43423901E-25
  -1.67999994E-02     9.43186652E-25
  -1.67900007E-02     9.42427176E-25
  -1.67800002E-02     9.41300387E-25
  -1.67699996E-02     9.40008134E-25
  -1.67599991E-02     9.38774651E-25
  -1.67500004E-02     9.37819834E-25
  -1.67399999E-02     9.37334684E-25
  -1.67299993E-02     9.37460212E-25
  -1.67200007E-02     9.38273133E-25
  -1.67100001E-02     9.39777688E-25
  -1.66999996E-02     9.41907415E-25
  -1.66900009E-02     9.44532448E-25
  -1.66800003E-02     9.47474702E-25
  -1.66699998E-02     9.50526411E-25
  -1.66599993E-02     9.53472510E-25
  -1.66500006E-02     9.56111743E-25
  -1.66400000E-02     9.58276279E-25
  -1.66299995E-02     9.59847098E-25
  -1.66200008E-02     9.60764445E-25
  -1.66100003E-02     9.61031869E-25
  -1.65999997E-02     9.60714056E-25
  -1.65899992E-02     9.59929435E-25
  -1.65800005E-02     9.58837258E-25
  -1.65700000E-02     9.57622609E-25
  -1.65599994E-02     9.56478268E-25
  -1.65500008E-02     9.55587545E-25
  -1.65400002E-02     9.55107425E-25
  -1.65299997E-02     9.55155446E-25
  -1.65199991E-02     9.55798960E-25
  -1.65100005E-02     9.57048910E-25
  -1.64999999E-02     9.58859346E-25
  -1.64899994E-02     9.61130378E-25
  -1.64800007E-02     9.63716559E-25
  -1.64700001E-02     9.66438820E-25
  -1.64599996E-02     9.69098859E-25
  -1.64500009E-02     9.71495813E-25
  -1.64400004E-02     9.73443609E-25
  -1.64299998E-02     9.74786053E-25
  -1.64199993E-02     9.75411028E-25
  -1.64100006E-02     9.75260158E-25
  -1.64000001E-02     9.74334627E-25
  -1.63899995E-02     9.72696163E-25
  -1.63800009E-02     9.70462799E-25
  -1.63700003E-02     9.67799703E-25
  -1.63599998E-02     9.64905767E-25
  -1.63499992E-02     9.61996941E-25
  -1.63400006E-02     9.59287204E-25
  -1.63300000E-02     9.56969629E-25
  -1.63199995E-02     9.55198538E-25
  -1.63100008E-02     9.54073622E-25
  -1.63000003E-02     9.53630776E-25
  -1.62899997E-02     9.53836372E-25
  -1.62799992E-02     9.54590030E-25
  -1.62700005E-02     9.55733681E-25
  -1.62599999E-02     9.57068138E-25
  -1.62499994E-02     9.58373605E-25
  -1.62400007E-02     9.59435411E-25
  -1.62300002E-02     9.60067782E-25
  -1.62199996E-02     9.60137497E-25
  -1.62099991E-02     9.59581153E-25
  -1.62000004E-02     9.58415809E-25
  -1.61899999E-02     9.56739381E-25
  -1.61799993E-02     9.54722263E-25
  -1.61700007E-02     9.52589282E-25
  -1.61600001E-02     9.50594549E-25
  -1.61499996E-02     9.48992273E-25
  -1.61400009E-02     9.48004422E-25
  -1.61300004E-02     9.47792909E-25
  -1.61199998E-02     9.48435929E-25
  -1.61099993E-02     9.49914353E-25
  -1.61000006E-02     9.52109063E-25
  -1.60900000E-02     9.54810221E-25
  -1.60799995E-02     9.57736501E-25
  -1.60700008E-02     9.60565652E-25
  -1.60600003E-02     9.62969114E-25
  -1.60499997E-02     9.64650374E-25
  -1.60399992E-02     9.65380267E-25
  -1.60300005E-02     9.65026266E-25
  -1.60200000E-02     9.63571803E-25
  -1.60099994E-02     9.61123278E-25
  -1.60000008E-02     9.57902063E-25
  -1.59900002E-02     9.54223605E-25
  -1.59799997E-02     9.50464880E-25
  -1.59699991E-02     9.47023671E-25
  -1.59600005E-02     9.44274491E-25
  -1.59499999E-02     9.42526178E-25
  -1.59399994E-02     9.41986104E-25
  -1.59300007E-02     9.42735423E-25
  -1.59200002E-02     9.44718422E-25
  -1.59099996E-02     9.47748043E-25
  -1.59000009E-02     9.51525602E-25
  -1.58900004E-02     9.55675207E-25
  -1.58799998E-02     9.59786159E-25
  -1.58699993E-02     9.63461560E-25
  -1.58600006E-02     9.66363188E-25
  -1.58500001E-02     9.68251031E-25
  -1.58399995E-02     9.69010605E-25
  -1.58300009E-02     9.68664689E-25
  -1.58200003E-02     9.67368788E-25
  -1.58099998E-02     9.65390128E-25
  -1.57999992E-02     9.63073934E-25
  -1.57900006E-02     9.60799253E-25
  -1.57800000E-02     9.58931132E-25
  -1.57699995E-02     9.57774366E-25
  -1.57600008E-02     9.57534552E-25
  -1.57500003E-02     9.58292253E-25
  -1.57399997E-02     9.59992446E-25
  -1.57299992E-02     9.62451522E-25
  -1.57200005E-02     9.65380070E-25
  -1.57099999E-02     9.68418959E-25
  -1.56999994E-02     9.71184706E-25
  -1.56900007E-02     9.73317095E-25
  -1.56800002E-02     9.74524250E-25
  -1.56699996E-02     9.74619209E-25
  -1.56599991E-02     9.73542512E-25
  -1.56500004E-02     9.71370285E-25
  -1.56399999E-02     9.68304574E-25
  -1.56299993E-02     9.64648106E-25
  -1.56199997E-02     9.60767206E-25
  -1.56100001E-02     9.57047135E-25
  -1.55999996E-02     9.53845543E-25
  -1.55900000E-02     9.51451054E-25
  -1.55800004E-02     9.50050826E-25
  -1.55699998E-02     9.49711024E-25
  -1.55600002E-02     9.50373372E-25
  -1.55499997E-02     9.51866488E-25
  -1.55400001E-02     9.53930543E-25
  -1.55300004E-02     9.56251371E-25
  -1.55199999E-02     9.58500414E-25
  -1.55100003E-02     9.60374550E-25
  -1.54999997E-02     9.61630417E-25
  -1.54900001E-02     9.62109946E-25
  -1.54799996E-02     9.61753972E-25
  -1.54700000E-02     9.60603221E-25
  -1.54600004E-02     9.58786475E-25
  -1.54499998E-02     9.56499172E-25
  -1.54400002E-02     9.53975705E-25
  -1.54299997E-02     9.51459239E-25
  -1.54200001E-02     9.49172035E-25
  -1.54100005E-02     9.47291489E-25
  -1.53999999E-02     9.45933564E-25
  -1.53900003E-02     9.45144309E-25
  -1.53799998E-02     9.44901044E-25
  -1.53700002E-02     9.45122319E-25
  -1.53599996E-02     9.45683594E-25
  -1.53500000E-02     9.46437350E-25
  -1.53400004E-02     9.47232916E-25
  -1.53299998E-02     9.47934805E-25
  -1.53200002E-02     9.48437310E-25
  -1.53099997E-02     9.48673574E-25
  -1.53000001E-02     9.48618255E-25
  -1.52899995E-02     9.48286243E-25
  -1.52799999E-02     9.47725166E-25
  -1.52700003E-02     9.47007302E-25
  -1.52599998E-02     9.46217850E-25
  -1.52500002E-02     9.45445752E-25
  -1.52399996E-02     9.44774333E-25
  -1.52300000E-02     9.44274885E-25
  -1.52200004E-02     9.44003813E-25
  -1.52099999E-02     9.44001249E-25
  -1.52000003E-02     9.44290958E-25
  -1.51899997E-02     9.44882111E-25
  -1.51800001E-02     9.45769579E-25
  -1.51699996E-02     9.46933938E-25
  -1.51600000E-02     9.48341562E-25
  -1.51500003E-02     9.49942949E-25
  -1.51399998E-02     9.51672724E-25
  -1.51300002E-02     9.53449831E-25
  -1.51199996E-02     9.55179211E-25
  -1.51100000E-02     9.56755749E-25
  -1.51000004E-02     9.58070189E-25
  -1.50899999E-02     9.59018005E-25
  -1.50800003E-02     9.59509959E-25
  -1.50699997E-02     9.59482053E-25
  -1.50600001E-02     9.58906677E-25
  -1.50499996E-02     9.57799905E-25
  -1.50400000E-02     9.56226325E-25
  -1.50300004E-02     9.54297264E-25
  -1.50199998E-02     9.52164283E-25
  -1.50100002E-02     9.50007044E-25
  -1.49999997E-02     9.48016452E-25
  -1.49900001E-02     9.46374438E-25
  -1.49800004E-02     9.45233450E-25
  -1.49699999E-02     9.44696531E-25
  -1.49600003E-02     9.44802732E-25
  -1.49499997E-02     9.45518130E-25
  -1.49400001E-02     9.46735342E-25
  -1.49299996E-02     9.48283482E-25
  -1.49200000E-02     9.49944527E-25
  -1.49100004E-02     9.51479848E-25
  -1.48999998E-02     9.52657420E-25
  -1.48900002E-02     9.53282888E-25
  -1.48799997E-02     9.53225005E-25
  -1.48700001E-02     9.52434369E-25
  -1.48600005E-02     9.50953579E-25
  -1.48499999E-02     9.48915162E-25
  -1.48400003E-02     9.46527872E-25
  -1.48299998E-02     9.44052525E-25
  -1.48200002E-02     9.41770055E-25
  -1.48099996E-02     9.39946011E-25
  -1.48000000E-02     9.38794668E-25
  -1.47900004E-02     9.38449936E-25
  -1.47799999E-02     9.38943665E-25
  -1.47700002E-02     9.40197362E-25
  -1.47599997E-02     9.42026927E-25
  -1.47500001E-02     9.44160993E-25
  -1.47399995E-02     9.46270605E-25
  -1.47299999E-02     9.48005901E-25
  -1.47200003E-02     9.49037830E-25
  -1.47099998E-02     9.49097981E-25
  -1.47000002E-02     9.48012311E-25
  -1.46899996E-02     9.45725600E-25
  -1.46800000E-02     9.42310326E-25
  -1.46700004E-02     9.37963110E-25
  -1.46599999E-02     9.32984807E-25
  -1.46500003E-02     9.27749334E-25
  -1.46399997E-02     9.22662562E-25
  -1.46300001E-02     9.18118821E-25
  -1.46199996E-02     9.14457521E-25
  -1.46100000E-02     9.11926855E-25
  -1.46000003E-02     9.10657676E-25
  -1.45899998E-02     9.10650675E-25
  -1.45800002E-02     9.11778549E-25
  -1.45699997E-02     9.13803949E-25
  -1.45600000E-02     9.16407486E-25
  -1.45500004E-02     9.19226974E-25
  -1.45399999E-02     9.21898944E-25
  -1.45300003E-02     9.24101247E-25
  -1.45199997E-02     9.25588348E-25
  -1.45100001E-02     9.26217859E-25
  -1.44999996E-02     9.25963846E-25
  -1.44900000E-02     9.24916436E-25
  -1.44800004E-02     9.23267815E-25
  -1.44699998E-02     9.21285703E-25
  -1.44600002E-02     9.19279433E-25
  -1.44499997E-02     9.17559322E-25
  -1.44400001E-02     9.16397724E-25
  -1.44300004E-02     9.15994222E-25
  -1.44199999E-02     9.16450183E-25
  -1.44100003E-02     9.17754269E-25
  -1.43999998E-02     9.19782726E-25
  -1.43900001E-02     9.22312998E-25
  -1.43799996E-02     9.25049260E-25
  -1.43700000E-02     9.27656939E-25
  -1.43600004E-02     9.29802147E-25
  -1.43499998E-02     9.31191233E-25
  -1.43400002E-02     9.31606371E-25
  -1.43299997E-02     9.30932289E-25
  -1.43200001E-02     9.29172045E-25
  -1.43100005E-02     9.26448009E-25
  -1.42999999E-02     9.22990531E-25
  -1.42900003E-02     9.19112983E-25
  -1.42799998E-02     9.15178835E-25
  -1.42700002E-02     9.11561612E-25
  -1.42599996E-02     9.08604567E-25
  -1.42500000E-02     9.06583900E-25
  -1.42400004E-02     9.05679175E-25
  -1.42299999E-02     9.05955276E-25
  -1.42200002E-02     9.07355998E-25
  -1.42099997E-02     9.09711438E-25
  -1.42000001E-02     9.12758413E-25
  -1.41899996E-02     9.16170039E-25
  -1.41799999E-02     9.19591526E-25
  -1.41700003E-02     9.22678733E-25
  -1.41599998E-02     9.25134852E-25
  -1.41500002E-02     9.26739789E-25
  -1.41399996E-02     9.27371272E-25
  -1.41300000E-02     9.27013623E-25
  -1.41200004E-02     9.25754206E-25
  -1.41099999E-02     9.23769235E-25
  -1.41000003E-02     9.21299213E-25
  -1.40899997E-02     9.18618959E-25
  -1.40800001E-02     9.16004378E-25
  -1.40699996E-02     9.13700411E-25
  -1.40600000E-02     9.11894807E-25
  -1.40500003E-02     9.10698598E-25
  -1.40399998E-02     9.10137521E-25
  -1.40300002E-02     9.10152115E-25
  -1.40199997E-02     9.10609161E-25
  -1.40100000E-02     9.11319925E-25
  -1.40000004E-02     9.12065201E-25
  -1.39899999E-02     9.12621841E-25
  -1.39800003E-02     9.12789178E-25
  -1.39699997E-02     9.12412103E-25
  -1.39600001E-02     9.11398318E-25
  -1.39499996E-02     9.09728102E-25
  -1.39400000E-02     9.07455591E-25
  -1.39300004E-02     9.04701579E-25
  -1.39199998E-02     9.01640799E-25
  -1.39100002E-02     8.98482792E-25