  -2.19999999E-02     1.00000002E-24
  -2.19899993E-02     1.00000002E-24
  -2.19800007E-02     1.00000002E-24
  -2.19700001E-02     1.00000002E-24
  -2.19599996E-02     1.00000002E-24
  -2.19500009E-02     1.00000012E-24
  -2.19400004E-02     1.00000022E-24
  -2.19299998E-02     1.00000032E-24
  -2.19199993E-02     1.00000032E-24
  -2.19100006E-02     1.00000032E-24
  -2.19000001E-02     1.00000022E-24
  -2.18899995E-02     1.00000012E-24
  -2.18800008E-02     1.00000002E-24
  -2.18700003E-02     9.99999921E-25
  -2.18599997E-02     9.99999921E-25
  -2.18499992E-02     9.99999921E-25
  -2.18400005E-02     1.00000002E-24
  -2.18300000E-02     1.00000012E-24
  -2.18199994E-02     1.00000022E-24
  -2.18100008E-02     1.00000032E-24
  -2.18000002E-02     1.00000041E-24
  -2.17899997E-02     1.00000041E-24
  -2.17799991E-02     1.00000041E-24
  -2.17700005E-02     1.00000041E-24
  -2.17599999E-02     1.00000032E-24
  -2.17499994E-02     1.00000022E-24
  -2.17400007E-02     1.00000012E-24
  -2.17300002E-02     1.00000002E-24
  -2.17199996E-02     1.00000002E-24
  -2.17099991E-02     1.00000002E-24
  -2.17000004E-02     1.00000002E-24
  -2.16899998E-02     1.00000002E-24
  -2.16799993E-02     1.00000012E-24
  -2.16700006E-02     1.00000022E-24
  -2.16600001E-02     1.00000032E-24
  -2.16499995E-02     1.00000041E-24
  -2.16400009E-02     1.00000041E-24
  -2.16300003E-02     1.00000051E-24
  -2.16199998E-02     1.00000041E-24
  -2.16099992E-02     1.00000032E-24
  -2.16000006E-02     1.00000022E-24
  -2.15900000E-02     1.00000012E-24
  -2.15799995E-02     9.99999822E-25
  -2.15700008E-02     9.99999625E-25
  -2.15600003E-02     9.99999428E-25
  -2.15499997E-02     9.99999329E-25
  -2.15399992E-02     9.99999329E-25
  -2.15300005E-02     9.99999428E-25
  -2.15200000E-02     9.99999724E-25
  -2.15099994E-02     1.00000002E-24
  -2.15000007E-02     1.00000032E-24
  -2.14900002E-02     1.00000041E-24
  -2.14799996E-02     1.00000032E-24
  -2.14699991E-02     1.00000012E-24
  -2.14600004E-02     9.99999921E-25
  -2.14499999E-02     9.99999921E-25
  -2.14399993E-02     1.00000002E-24
  -2.14300007E-02     1.00000032E-24
  -2.14200001E-02     1.00000081E-24
  -2.14099996E-02     1.00000130E-24
  -2.14000009E-02     1.00000199E-24
  -2.13900004E-02     1.00000239E-24
  -2.13799998E-02     1.00000248E-24
  -2.13699993E-02     1.00000239E-24
  -2.13600006E-02     1.00000199E-24
  -2.13500001E-02     1.00000150E-24
  -2.13399995E-02     1.00000081E-24
  -2.13300008E-02     1.00000012E-24
  -2.13200003E-02     9.99999822E-25
  -2.13099997E-02     9.99999822E-25
  -2.12999992E-02     1.00000032E-24
  -2.12900005E-02     1.00000120E-24
  -2.12800000E-02     1.00000239E-24
  -2.12699994E-02     1.00000367E-24
  -2.12600008E-02     1.00000465E-24
  -2.12500002E-02     1.00000544E-24
  -2.12399997E-02     1.00000574E-24
  -2.12299991E-02     1.00000534E-24
  -2.12200005E-02     1.00000426E-24
  -2.12099999E-02     1.00000229E-24
  -2.11999994E-02     9.99999625E-25
  -2.11900007E-02     9.99996371E-25
  -2.11800002E-02     9.99992624E-25
  -2.11699996E-02     9.99988778E-25
  -2.11599991E-02     9.99985327E-25
  -2.11500004E-02     9.99982270E-25
  -2.11399999E-02     9.99980397E-25
  -2.11299993E-02     9.99979805E-25
  -2.11200006E-02     9.99980495E-25
  -2.11100001E-02     9.99982665E-25
  -2.10999995E-02     9.99985919E-25
  -2.10900009E-02     9.99989863E-25
  -2.10800003E-02     9.99993610E-25
  -2.10699998E-02     9.99996568E-25
  -2.10599992E-02     9.99997949E-25
  -2.10500006E-02     9.99997061E-25
  -2.10400000E-02     9.99993413E-25
  -2.10299995E-02     9.99986905E-25
  -2.10200008E-02     9.99977734E-25
  -2.10100003E-02     9.99966493E-25
  -2.09999997E-02     9.99953575E-25
  -2.09899992E-02     9.99939869E-25
  -2.09800005E-02     9.99926162E-25
  -2.09700000E-02     9.99913343E-25
  -2.09599994E-02     9.99902398E-25
  -2.09500007E-02     9.99894016E-25
  -2.09400002E-02     9.99889185E-25
  -2.09299996E-02     9.99888593E-25
  -2.09199991E-02     9.99892833E-25
  -2.09100004E-02     9.99902102E-25
  -2.08999999E-02     9.99916992E-25
  -2.08899993E-02     9.99937601E-25
  -2.08800007E-02     9.99963436E-25
  -2.08700001E-02     9.99993807E-25
  -2.08599996E-02     1.00002743E-24
  -2.08500009E-02     1.00006254E-24
  -2.08400004E-02     1.00009646E-24
  -2.08299998E-02     1.00012614E-24
  -2.08199993E-02     1.00014803E-24
  -2.08100006E-02     1.00015858E-24
  -2.08000001E-02     1.00015385E-24
  -2.07899995E-02     1.00013048E-24
  -2.07800008E-02     1.00008541E-24
  -2.07700003E-02     1.00001659E-24
  -2.07599998E-02     9.99923007E-25
  -2.07499992E-02     9.99804974E-25
  -2.07400005E-02     9.99664063E-25
  -2.07300000E-02     9.99502939E-25
  -2.07199994E-02     9.99325445E-25
  -2.07100008E-02     9.99136020E-25
  -2.07000002E-02     9.98939692E-25
  -2.06899997E-02     9.98741293E-25
  -2.06799991E-02     9.98545459E-25
  -2.06700005E-02     9.98356625E-25
  -2.06599999E-02     9.98178342E-25
  -2.06499994E-02     9.98013372E-25
  -2.06400007E-02     9.97864080E-25
  -2.06300002E-02     9.97732143E-25
  -2.06199996E-02     9.97619040E-25
  -2.06099991E-02     9.97526053E-25
  -2.06000004E-02     9.97454365E-25
  -2.05899999E-02     9.97405653E-25
  -2.05799993E-02     9.97381199E-25
  -2.05700006E-02     9.97382579E-25
  -2.05600001E-02     9.97411175E-25
  -2.05499995E-02     9.97467776E-25
  -2.05400009E-02     9.97552283E-25
  -2.05300003E-02     9.97663611E-25
  -2.05199998E-02     9.97799196E-25
  -2.05099992E-02     9.97954799E-25
  -2.05000006E-02     9.98124897E-25
  -2.04900000E-02     9.98301996E-25
  -2.04799995E-02     9.98478110E-25
  -2.04700008E-02     9.98644855E-25
  -2.04600003E-02     9.98794147E-25
  -2.04499997E-02     9.98919675E-25
  -2.04399992E-02     9.99016606E-25
  -2.04300005E-02     9.99083560E-25
  -2.04200000E-02     9.99122116E-25
  -2.04099994E-02     9.99137597E-25
  -2.04000007E-02     9.99138583E-25
  -2.03900002E-02     9.99136414E-25
  -2.03799997E-02     9.99144500E-25
  -2.03699991E-02     9.99177139E-25
  -2.03600004E-02     9.99248038E-25
  -2.03499999E-02     9.99369325E-25
  -2.03399993E-02     9.99550369E-25
  -2.03300007E-02     9.99796000E-25
  -2.03200001E-02     1.00010711E-24
  -2.03099996E-02     1.00047975E-24
  -2.03000009E-02     1.00090534E-24
  -2.02900004E-02     1.00137214E-24
  -2.02799998E-02     1.00186568E-24
  -2.02699993E-02     1.00237055E-24
  -2.02600006E-02     1.00287187E-24
  -2.02500001E-02     1.00335633E-24
  -2.02399995E-02     1.00381308E-24
  -2.02300008E-02     1.00423482E-24
  -2.02200003E-02     1.00461752E-24
  -2.02099998E-02     1.00495949E-24
  -2.01999992E-02     1.00526103E-24
  -2.01900005E-02     1.00552244E-24
  -2.01800000E-02     1.00574283E-24
  -2.01699995E-02     1.00591855E-24
  -2.01600008E-02     1.00604210E-24
  -2.01500002E-02     1.00610186E-24
  -2.01399997E-02     1.00608155E-24
  -2.01299991E-02     1.00596193E-24
  -2.01200005E-02     1.00572123E-24
  -2.01099999E-02     1.00533785E-24
  -2.00999994E-02     1.00479136E-24
  -2.00900007E-02     1.00406512E-24
  -2.00800002E-02     1.00314777E-24
  -2.00699996E-02     1.00203469E-24
  -2.00599991E-02     1.00072883E-24
  -2.00500004E-02     9.99240445E-25
  -2.00399999E-02     9.97586894E-25
  -2.00299993E-02     9.95791052E-25
  -2.00200006E-02     9.93879839E-25
  -2.00100001E-02     9.91882739E-25
  -1.99999996E-02     9.89829236E-25
  -1.99900009E-02     9.87747728E-25
  -1.99800003E-02     9.85664050E-25
  -1.99699998E-02     9.83600390E-25
  -1.99599992E-02     9.81575384E-25
  -1.99500006E-02     9.79603429E-25
  -1.99400000E-02     9.77695964E-25
  -1.99299995E-02     9.75862256E-25
  -1.99200008E-02     9.74110196E-25
  -1.99100003E-02     9.72448165E-25
  -1.98999997E-02     9.70885136E-25
  -1.98899992E-02     9.69432350E-25
  -1.98800005E-02     9.68102429E-25
  -1.98700000E-02     9.66909868E-25
  -1.98599994E-02     9.65870347E-25
  -1.98500007E-02     9.64999346E-25
  -1.98400002E-02     9.64310374E-25
  -1.98299997E-02     9.63814082E-25
  -1.98199991E-02     9.63515696E-25
  -1.98100004E-02     9.63414623E-25
  -1.97999999E-02     9.63502482E-25
  -1.97899994E-02     9.63763102E-25
  -1.97800007E-02     9.64173310E-25
  -1.97700001E-02     9.64703227E-25
  -1.97599996E-02     9.65318341E-25
  -1.97500009E-02     9.65980886E-25
  -1.97400004E-02     9.66652601E-25
  -1.97299998E-02     9.67297002E-25
  -1.97199993E-02     9.67880858E-25
  -1.97100006E-02     9.68376262E-25
  -1.97000001E-02     9.68761621E-25
  -1.96899995E-02     9.69022339E-25
  -1.96800008E-02     9.69149938E-25
  -1.96700003E-02     9.69141753E-25
  -1.96599998E-02     9.68999462E-25
  -1.96499992E-02     9.68727404E-25
  -1.96400005E-02     9.68331100E-25
  -1.96300000E-02     9.67816072E-25
  -1.96199995E-02     9.67186956E-25
  -1.96100008E-02     9.66446413E-25
  -1.96000002E-02     9.65595823E-25
  -1.95899997E-02     9.64634695E-25
  -1.95799991E-02     9.63562239E-25
  -1.95700005E-02     9.62377862E-25
  -1.95599999E-02     9.61082750E-25
  -1.95499994E-02     9.59680254E-25
  -1.95400007E-02     9.58177375E-25
  -1.95300002E-02     9.56584862E-25
  -1.95199996E-02     9.54917901E-25
  -1.95099991E-02     9.53195028E-25
  -1.95000004E-02     9.51437939E-25
  -1.94899999E-02     9.49670102E-25
  -1.94799993E-02     9.47915873E-25
  -1.94700006E-02     9.46198818E-25
  -1.94600001E-02     9.44541027E-25
  -1.94499996E-02     9.42961629E-25
  -1.94400009E-02     9.41475908E-25
  -1.94300003E-02     9.40095402E-25
  -1.94199998E-02     9.38828294E-25
  -1.94099993E-02     9.37679614E-25
  -1.94000006E-02     9.36653207E-25
  -1.93900000E-02     9.35752328E-25
  -1.93799995E-02     9.34981709E-25
  -1.93700008E-02     9.34348254E-25
  -1.93600003E-02     9.33862118E-25
  -1.93499997E-02     9.33536418E-25
  -1.93399992E-02     9.33387421E-25
  -1.93300005E-02     9.33432682E-25
  -1.93200000E-02     9.33689851E-25
  -1.93099994E-02     9.34174113E-25
  -1.93000007E-02     9.34896118E-25
  -1.92900002E-02     9.35859514E-25
  -1.92799997E-02     9.37058681E-25
  -1.92699991E-02     9.38477941E-25
  -1.92600004E-02     9.40090471E-25
  -1.92499999E-02     9.41859294E-25
  -1.92399994E-02     9.43737671E-25
  -1.92300007E-02     9.45671761E-25
  -1.92200001E-02     9.47602892E-25
  -1.92099996E-02     9.49470323E-25
  -1.92000009E-02     9.51214692E-25
  -1.91900004E-02     9.52780679E-25
  -1.91799998E-02     9.54120067E-25
  -1.91699993E-02     9.55193805E-25
  -1.91600006E-02     9.55973002E-25
  -1.91500001E-02     9.56439909E-25
  -1.91399995E-02     9.56587623E-25
  -1.91300008E-02     9.56419300E-25
  -1.91200003E-02     9.55946477E-25
  -1.91099998E-02     9.55187494E-25
  -1.90999992E-02     9.54165327E-25
  -1.90900005E-02     9.52905517E-25
  -1.90800000E-02     9.51434488E-25
  -1.90699995E-02     9.49778176E-25
  -1.90600008E-02     9.47961429E-25
  -1.90500002E-02     9.46006928E-25
  -1.90399997E-02     9.43936168E-25
  -1.90299992E-02     9.41769956E-25
  -1.90200005E-02     9.39528704E-25
  -1.90099999E-02     9.37234302E-25
  -1.89999994E-02     9.34909824E-25
  -1.89900007E-02     9.32581008E-25
  -1.89800002E-02     9.30275760E-25
  -1.89699996E-02     9.28024942E-25
  -1.89599991E-02     9.25861097E-25
  -1.89500004E-02     9.23817848E-25
  -1.89399999E-02     9.21929020E-25
  -1.89299993E-02     9.20226756E-25
  -1.89200006E-02     9.18739951E-25
  -1.89100001E-02     9.17492959E-25
  -1.88999996E-02     9.16503727E-25
  -1.88900009E-02     9.15783103E-25
  -1.88800003E-02     9.15333945E-25
  -1.88699998E-02     9.15150436E-25
  -1.88599993E-02     9.15218574E-25
  -1.88500006E-02     9.15516764E-25
  -1.88400000E-02     9.16017493E-25
  -1.88299995E-02     9.16688419E-25
  -1.88200008E-02     9.17495128E-25
  -1.88100003E-02     9.18403009E-25
  -1.87999997E-02     9.19379717E-25
  -1.87899992E-02     9.20396953E-25
  -1.87800005E-02     9.21432037E-25
  -1.87700000E-02     9.22468699E-25
  -1.87599994E-02     9.23496979E-25
  -1.87500007E-02     9.24512835E-25
  -1.87400002E-02     9.25516956E-25
  -1.87299997E-02     9.26512597E-25
  -1.87199991E-02     9.27503801E-25
  -1.87100004E-02     9.28493131E-25
  -1.86999999E-02     9.29480193E-25
  -1.86899994E-02     9.30459564E-25
  -1.86800007E-02     9.31420693E-25
  -1.86700001E-02     9.32348294E-25
  -1.86599996E-02     9.33223240E-25
  -1.86500009E-02     9.34024427E-25
  -1.86400004E-02     9.34731345E-25
  -1.86299998E-02     9.35326836E-25
  -1.86199993E-02     9.35798871E-25
  -1.86100006E-02     9.36143603E-25
  -1.86000001E-02     9.36365371E-25
  -1.85899995E-02     9.36477291E-25
  -1.85800008E-02     9.36500464E-25
  -1.85700003E-02     9.36461119E-25
  -1.85599998E-02     9.36388446E-25
  -1.85499992E-02     9.36310151E-25
  -1.85400005E-02     9.36249803E-25
  -1.85300000E-02     9.36223672E-25
  -1.85199995E-02     9.36239055E-25
  -1.85100008E-02     9.36293782E-25
  -1.85000002E-02     9.36376613E-25
  -1.84899997E-02     9.36470093E-25
  -1.84799992E-02     9.36553120E-25
  -1.84700005E-02     9.36605382E-25
  -1.84599999E-02     9.36611003E-25
  -1.84499994E-02     9.36562094E-25
  -1.84400007E-02     9.36461612E-25
  -1.84300002E-02     9.36324055E-25
  -1.84199996E-02     9.36174171E-25
  -1.84099991E-02     9.36045291E-25
  -1.84000004E-02     9.35974491E-25
  -1.83899999E-02     9.35998255E-25
  -1.83799993E-02     9.36147350E-25
  -1.83700006E-02     9.36442187E-25
  -1.83600001E-02     9.36888485E-25
  -1.83499996E-02     9.37476383E-25
  -1.83400009E-02     9.38179949E-25
  -1.83300003E-02     9.38959146E-25
  -1.83199998E-02     9.39764474E-25
  -1.83099993E-02     9.40541995E-25
  -1.83000006E-02     9.41239743E-25
  -1.82900000E-02     9.41814231E-25
  -1.82799995E-02     9.42235384E-25
  -1.82700008E-02     9.42490679E-25
  -1.82600003E-02     9.42585835E-25
  -1.82499997E-02     9.42544913E-25
  -1.82399992E-02     9.42407158E-25
  -1.82300005E-02     9.42221382E-25
  -1.82200000E-02     9.42040535E-25
  -1.82099994E-02     9.41915008E-25
  -1.82000007E-02     9.41886510E-25
  -1.81900002E-02     9.41983244E-25
  -1.81799997E-02     9.42217733E-25
  -1.81699991E-02     9.42585342E-25
  -1.81600004E-02     9.43067534E-25
  -1.81499999E-02     9.43634429E-25
  -1.81399994E-02     9.44250628E-25
  -1.81300007E-02     9.44880336E-25
  -1.81200001E-02     9.45493379E-25
  -1.81099996E-02     9.46068854E-25
  -1.81000009E-02     9.46598278E-25
  -1.80900004E-02     9.47086484E-25
  -1.80799998E-02     9.47550334E-25
  -1.80699993E-02     9.48015861E-25
  -1.80600006E-02     9.48513731E-25
  -1.80500001E-02     9.49074709E-25
  -1.80399995E-02     9.49724829E-25
  -1.80300009E-02     9.50480558E-25
  -1.80200003E-02     9.51346826E-25
  -1.80099998E-02     9.52315350E-25
  -1.79999992E-02     9.53365028E-25
  -1.79900005E-02     9.54464503E-25
  -1.79800000E-02     9.55574430E-25
  -1.79699995E-02     9.56653099E-25
  -1.79600008E-02     9.57659883E-25
  -1.79500002E-02     9.58560170E-25
  -1.79399997E-02     9.59328915E-25
  -1.79299992E-02     9.59952904E-25
  -1.79200005E-02     9.60432334E-25
  -1.79099999E-02     9.60779334E-25
  -1.78999994E-02     9.61017669E-25
  -1.78900007E-02     9.61178498E-25
  -1.78800002E-02     9.61298109E-25
  -1.78699996E-02     9.61413381E-25
  -1.78599991E-02     9.61557940E-25
  -1.78500004E-02     9.61759691E-25
  -1.78399999E-02     9.62037765E-25
  -1.78299993E-02     9.62401035E-25
  -1.78200006E-02     9.62848517E-25
  -1.78100001E-02     9.63368869E-25
  -1.77999996E-02     9.63942963E-25
  -1.77900009E-02     9.64545652E-25
  -1.77800003E-02     9.65148342E-25
  -1.77699998E-02     9.65721745E-25
  -1.77599993E-02     9.66238548E-25
  -1.77500006E-02     9.66675379E-25
  -1.77400000E-02     9.67014097E-25
  -1.77299995E-02     9.67242176E-25
  -1.77200008E-02     9.67353405E-25
  -1.77100003E-02     9.67346108E-25
  -1.76999997E-02     9.67222257E-25
  -1.76899992E-02     9.66986092E-25
  -1.76800005E-02     9.66642050E-25
  -1.76700000E-02     9.66193484E-25
  -1.76599994E-02     9.65641479E-25
  -1.76500008E-02     9.64984555E-25
  -1.76400002E-02     9.64218078E-25
  -1.76299997E-02     9.63335540E-25
  -1.76199991E-02     9.62328854E-25
  -1.76100004E-02     9.61190232E-25
  -1.75999999E-02     9.59913757E-25
  -1.75899994E-02     9.58497751E-25
  -1.75800007E-02     9.56945865E-25
  -1.75700001E-02     9.55269042E-25
  -1.75599996E-02     9.53487400E-25
  -1.75500009E-02     9.51630126E-25
  -1.75400004E-02     9.49736169E-25
  -1.75299998E-02     9.47853651E-25
  -1.75199993E-02     9.46037792E-25
  -1.75100006E-02     9.44348545E-25
  -1.75000001E-02     9.42847639E-25
  -1.74899995E-02     9.41594237E-25
  -1.74800009E-02     9.40640603E-25
  -1.74700003E-02     9.40027954E-25
  -1.74599998E-02     9.39782815E-25
  -1.74499992E-02     9.39913766E-25
  -1.74400005E-02     9.40409565E-25
  -1.74300000E-02     9.41239940E-25
  -1.74199995E-02     9.42356967E-25
  -1.74100008E-02     9.43698031E-25
  -1.74000002E-02     9.45191147E-25
  -1.73899997E-02     9.46760487E-25
  -1.73799992E-02     9.48332293E-25
  -1.73700005E-02     9.49840693E-25
  -1.73599999E-02     9.51232540E-25
  -1.73499994E-02     9.52470756E-25
  -1.73400007E-02     9.53535028E-25
  -1.73300002E-02     9.54421214E-25
  -1.73199996E-02     9.55137894E-25
  -1.73099991E-02     9.55702324E-25
  -1.73000004E-02     9.56134817E-25
  -1.72899999E-02     9.56452827E-25
  -1.72799993E-02     9.56666115E-25
  -1.72700007E-02     9.56773795E-25
  -1.72600001E-02     9.56763145E-25
  -1.72499996E-02     9.56610599E-25
  -1.72400009E-02     9.56285391E-25
  -1.72300003E-02     9.55755375E-25
  -1.72199998E-02     9.54992941E-25
  -1.72099993E-02     9.53981720E-25
  -1.72000006E-02     9.52722008E-25
  -1.71900000E-02     9.51235005E-25
  -1.71799995E-02     9.49562817E-25
  -1.71700008E-02     9.47766679E-25
  -1.71600003E-02     9.45922520E-25
  -1.71499997E-02     9.44113169E-25
  -1.71399992E-02     9.42420175E-25
  -1.71300005E-02     9.40915521E-25
  -1.71200000E-02     9.39652949E-25
  -1.71099994E-02     9.38663422E-25
  -1.71000008E-02     9.37951278E-25
  -1.70900002E-02     9.37495119E-25
  -1.70799997E-02     9.37251065E-25
  -1.70699991E-02     9.37159064E-25
  -1.70600004E-02     9.37150682E-25
  -1.70499999E-02     9.37157585E-25
  -1.70399994E-02     9.37120311E-25
  -1.70300007E-02     9.36994488E-25
  -1.70200001E-02     9.36755266E-25
  -1.70099996E-02     9.36398701E-25
  -1.70000009E-02     9.35939879E-25
  -1.69900004E-02     9.35409568E-25
  -1.69799998E-02     9.34847406E-25
  -1.69699993E-02     9.34295104E-25
  -1.69600006E-02     9.33789346E-25
  -1.69500001E-02     9.33355867E-25
  -1.69399995E-02     9.33005810E-25
  -1.69300009E-02     9.32733259E-25
  -1.69200003E-02     9.32517604E-25
  -1.69099998E-02     9.32325910E-25
  -1.68999992E-02     9.32119919E-25
  -1.68900006E-02     9.31861567E-25
  -1.68800000E-02     9.31520681E-25
  -1.68699995E-02     9.31079905E-25
  -1.68600008E-02     9.30539535E-25
  -1.68500002E-02     9.29918307E-25
  -1.68399997E-02     9.29253297E-25
  -1.68299992E-02     9.28595584E-25
  -1.68200005E-02     9.28004629E-25
  -1.68099999E-02     9.27541173E-25
  -1.67999994E-02     9.27258564E-25
  -1.67900007E-02     9.27195849E-25
  -1.67800002E-02     9.27370878E-25
  -1.67699996E-02     9.27776944E-25
  -1.67599991E-02     9.28381705E-25
  -1.67500004E-02     9.29128361E-25
  -1.67399999E-02     9.29941480E-25
  -1.67299993E-02     9.30732806E-25
  -1.67200007E-02     9.31411423E-25
  -1.67100001E-02     9.31892826E-25
  -1.66999996E-02     9.32107889E-25
  -1.66900009E-02     9.32010366E-25
  -1.66800003E-02     9.31582705E-25
  -1.66699998E-02     9.30837034E-25
  -1.66599993E-02     9.29814177E-25
  -1.66500006E-02     9.28579117E-25
  -1.66400000E-02     9.27212613E-25
  -1.66299995E-02     9.25802425E-25
  -1.66200008E-02     9.24433061E-25
  -1.66100003E-02     9.23176603E-25
  -1.65999997E-02     9.22085017E-25
  -1.65899992E-02     9.21185222E-25
  -1.65800005E-02     9.20477318E-25
  -1.65700000E-02     9.19936949E-25
  -1.65599994E-02     9.19520233E-25
  -1.65500008E-02     9.19171260E-25
  -1.65400002E-02     9.18831557E-25
  -1.65299997E-02     9.18448861E-25
  -1.65199991E-02     9.17985109E-25
  -1.65100005E-02     9.17422454E-25
  -1.64999999E-02     9.16766418E-25
  -1.64899994E-02     9.16044807E-25
  -1.64800007E-02     9.15304363E-25
  -1.64700001E-02     9.14604545E-25
  -1.64599996E-02     9.14009546E-25
  -1.64500009E-02     9.13578927E-25
  -1.64400004E-02     9.13359821E-25
  -1.64299998E-02     9.13380331E-25
  -1.64199993E-02     9.13644994E-25
  -1.64100006E-02     9.14133989E-25
  -1.64000001E-02     9.14805113E-25
  -1.63899995E-02     9.15597819E-25
  -1.63800009E-02     9.16440618E-25
  -1.63700003E-02     9.17258273E-25
  -1.63599998E-02     9.17979883E-25
  -1.63499992E-02     9.18545398E-25
  -1.63400006E-02     9.18911232E-25
  -1.63300000E-02     9.19052931E-25
  -1.63199995E-02     9.18966650E-25
  -1.63100008E-02     9.18666981E-25
  -1.63000003E-02     9.18184297E-25
  -1.62899997E-02     9.17560111E-25
  -1.62799992E-02     9.16842543E-25
  -1.62700005E-02     9.16080996E-25
  -1.62599999E-02     9.15322605E-25
  -1.62499994E-02     9.14608785E-25
  -1.62400007E-02     9.13973752E-25
  -1.62300002E-02     9.13444229E-25
  -1.62199996E-02     9.13039149E-25
  -1.62099991E-02     9.12771626E-25
  -1.62000004E-02     9.12649747E-25
  -1.61899999E-02     9.12678639E-25
  -1.61799993E-02     9.12861458E-25
  -1.61700007E-02     9.13199879E-25
  -1.61600001E-02     9.13694791E-25
  -1.61499996E-02     9.14345897E-25
  -1.61400009E-02     9.15150436E-25
  -1.61300004E-02     9.16102493E-25
  -1.61199998E-02     9.17190924E-25
  -1.61099993E-02     9.18399064E-25
  -1.61000006E-02     9.19702755E-25
  -1.60900000E-02     9.21070739E-25
  -1.60799995E-02     9.22464360E-25
  -1.60700008E-02     9.23838457E-25
  -1.60600003E-02     9.25143135E-25
  -1.60499997E-02     9.26326623E-25
  -1.60399992E-02     9.27337746E-25
  -1.60300005E-02     9.28129861E-25
  -1.60200000E-02     9.28664906E-25
  -1.60099994E-02     9.28916552E-25
  -1.60000008E-02     9.28873263E-25
  -1.59900002E-02     9.28539477E-25
  -1.59799997E-02     9.27936590E-25
  -1.59699991E-02     9.27101186E-25
  -1.59600005E-02     9.26082372E-25
  -1.59499999E-02     9.24937341E-25
  -1.59399994E-02     9.23726341E-25
  -1.59300007E-02     9.22506762E-25
  -1.59200002E-02     9.21328105E-25
  -1.59099996E-02     9.20227545E-25
  -1.59000009E-02     9.19226678E-25
  -1.58900004E-02     9.18331025E-25
  -1.58799998E-02     9.17530824E-25
  -1.58699993E-02     9.16804481E-25
  -1.58600006E-02     9.16122806E-25
  -1.58500001E-02     9.15455430E-25
  -1.58399995E-02     9.14776122E-25
  -1.58300009E-02     9.14068415E-25
  -1.58200003E-02     9.13329154E-25
  -1.58099998E-02     9.12571256E-25
  -1.57999992E-02     9.11822725E-25
  -1.57900006E-02     9.11124781E-25
  -1.57800000E-02     9.10527711E-25
  -1.57699995E-02     9.10084372E-25
  -1.57600008E-02     9.09844361E-25
  -1.57500003E-02     9.09846727E-25
  -1.57399997E-02     9.10114348E-25
  -1.57299992E-02     9.10649985E-25
  -1.57200005E-02     9.11433817E-25
  -1.57099999E-02     9.12424429E-25
  -1.56999994E-02     9.13561868E-25
  -1.56900007E-02     9.14772276E-25
  -1.56800002E-02     9.15974599E-25
  -1.56699996E-02     9.17088668E-25
  -1.56599991E-02     9.18041612E-25
  -1.56500004E-02     9.18775647E-25
  -1.56399999E-02     9.19252414E-25
  -1.56299993E-02     9.19456631E-25
  -1.56199997E-02     9.19395691E-25
  -1.56100001E-02     9.19098784E-25
  -1.55999996E-02     9.18612155E-25
  -1.55900000E-02     9.17994083E-25
  -1.55800004E-02     9.17307971E-25
  -1.55699998E-02     9.16615746E-25
  -1.55600002E-02     9.15972035E-25
  -1.55499997E-02     9.15418255E-25
  -1.55400001E-02     9.14980240E-25
  -1.55300004E-02     9.14665977E-25
  -1.55199999E-02     9.14466297E-25
  -1.55100003E-02     9.14357040E-25
  -1.54999997E-02     9.14303101E-25
  -1.54900001E-02     9.14263264E-25
  -1.54799996E-02     9.14195816E-25
  -1.54700000E-02     9.14063189E-25
  -1.54600004E-02     9.13836983E-25
  -1.54499998E-02     9.13500238E-25
  -1.54400002E-02     9.13049700E-25
  -1.54299997E-02     9.12495229E-25
  -1.54200001E-02     9.11857830E-25
  -1.54100005E-02     9.11166590E-25
  -1.53999999E-02     9.10454249E-25
  -1.53900003E-02     9.09752458E-25
  -1.53799998E-02     9.09087646E-25
  -1.53700002E-02     9.08477659E-25
  -1.53599996E-02     9.07929697E-25
  -1.53500000E-02     9.07440702E-25
  -1.53400004E-02     9.06999038E-25
  -1.53299998E-02     9.06588042E-25
  -1.53200002E-02     9.06190653E-25
  -1.53099997E-02     9.05794645E-25
  -1.53000001E-02     9.05397355E-25
  -1.52899995E-02     9.05008939E-25
  -1.52799999E-02     9.04654149E-25
  -1.52700003E-02     9.04371540E-25
  -1.52599998E-02     9.04210218E-25
  -1.52500002E-02     9.04225009E-25
  -1.52399996E-02     9.04468767E-25
  -1.52300000E-02     9.04984583E-25
  -1.52200004E-02     9.05799082E-25
  -1.52099999E-02     9.06915517E-25
  -1.52000003E-02     9.08311111E-25
  -1.51899997E-02     9.09936263E-25
  -1.51800001E-02     9.11717610E-25
  -1.51699996E-02     9.13564432E-25
  -1.51600000E-02     9.15377135E-25
  -1.51500003E-02     9.17058296E-25
  -1.51399998E-02     9.18522422E-25
  -1.51300002E-02     9.19705812E-25
  -1.51199996E-02     9.20574348E-25
  -1.51100000E-02     9.21126255E-25
  -1.51000004E-02     9.21392298E-25
  -1.50899999E-02     9.21431544E-25
  -1.50800003E-02     9.21322287E-25
  -1.50699997E-02     9.21152583E-25
  -1.50600001E-02     9.21007433E-25
  -1.50499996E-02     9.20957143E-25
  -1.50400000E-02     9.21047566E-25
  -1.50300004E-02     9.21293395E-25
  -1.50199998E-02     9.21674908E-25
  -1.50100002E-02     9.22140533E-25
  -1.49999997E-02     9.22612370E-25
  -1.49900001E-02     9.22996053E-25
  -1.49800004E-02     9.23193071E-25
  -1.49699999E-02     9.23113100E-25
  -1.49600003E-02     9.22686425E-25
  -1.49499997E-02     9.21872813E-25
  -1.49400001E-02     9.20666941E-25
  -1.49299996E-02     9.19100362E-25
  -1.49200000E-02     9.17237368E-25
  -1.49100004E-02     9.15168383E-25
  -1.48999998E-02     9.12999311E-25
  -1.48900002E-02     9.10840002E-25
  -1.48799997E-02     9.08792218E-25
  -1.48700001E-02     9.06939282E-25
  -1.48600005E-02     9.05338584E-25
  -1.48499999E-02     9.04017341E-25
  -1.48400003E-02     9.02972396E-25
  -1.48299998E-02     9.02173576E-25
  -1.48200002E-02     9.01570689E-25
  -1.48099996E-02     9.01101711E-25
  -1.48000000E-02     9.00702153E-25
  -1.47900004E-02     9.00314724E-25
  -1.47799999E-02     8.99896529E-25
  -1.47700002E-02     8.99424001E-25
  -1.47599997E-02     8.98896253E-25
  -1.47500001E-02     8.98333302E-25
  -1.47399995E-02     8.97773606E-25
  -1.47299999E-02     8.97267453E-25
  -1.47200003E-02     8.96869965E-25
  -1.47099998E-02     8.96632518E-25
  -1.47000002E-02     8.96595639E-25
  -1.46899996E-02     8.96782599E-25
  -1.46800000E-02     8.97195469E-25
  -1.46700004E-02     8.97813246E-25
  -1.46599999E-02     8.98592936E-25
  -1.46500003E-02     8.99473404E-25
  -1.46399997E-02     9.00381185E-25
  -1.46300001E-02     9.01237099E-25
  -1.46199996E-02     9.01964824E-25
  -1.46100000E-02     9.02497502E-25
  -1.46000003E-02     9.02785239E-25
  -1.45899998E-02     9.02798847E-25
  -1.45800002E-02     9.02533494E-25
  -1.45699997E-02     9.02008112E-25
  -1.45600000E-02     9.01262737E-25
  -1.45500004E-02     9.00354068E-25
  -1.45399999E-02     8.99348665E-25
  -1.45300003E-02     8.98315553E-25
  -1.45199997E-02     8.97318334E-25
  -1.45100001E-02     8.96408186E-25
  -1.44999996E-02     8.95618438E-25
  -1.44900000E-02     8.94961119E-25
  -1.44800004E-02     8.94426469E-25
  -1.44699998E-02     8.93984707E-25
  -1.44600002E-02     8.93591558E-25
  -1.44499997E-02     8.93195353E-25
  -1.44400001E-02     8.92745012E-25
  -1.44300004E-02     8.92198627E-25
  -1.44199999E-02     8.91531251E-25
  -1.44100003E-02     8.90740220E-25
  -1.43999998E-02     8.89847328E-25
  -1.43900001E-02     8.88898033E-25
  -1.43799996E-02     8.87956725E-25
  -1.43700000E-02     8.87098838E-25
  -1.43600004E-02     8.86401387E-25
  -1.43499998E-02     8.85931226E-25
  -1.43400002E-02     8.85735095E-25
  -1.43299997E-02     8.85830646E-25
  -1.43200001E-02     8.86201608E-25
  -1.43100005E-02     8.86796310E-25
  -1.42999999E-02     8.87531529E-25
  -1.42900003E-02     8.88300668E-25
  -1.42799998E-02     8.88985695E-25
  -1.42700002E-02     8.89471042E-25
  -1.42599996E-02     8.89658199E-25
  -1.42500000E-02     8.89480015E-25
  -1.42400004E-02     8.88910458E-25
  -1.42299999E-02     8.87970628E-25
  -1.42200002E-02     8.86729257E-25
  -1.42099997E-02     8.85296390E-25
  -1.42000001E-02     8.83812049E-25
  -1.41899996E-02     8.82430853E-25
  -1.41799999E-02     8.81303570E-25
  -1.41700003E-02     8.80558984E-25
  -1.41599998E-02     8.80287123E-25
  -1.41500002E-02     8.80528120E-25
  -1.41399996E-02     8.81265311E-25
  -1.41300000E-02     8.82426514E-25
  -1.41200004E-02     8.83891823E-25
  -1.41099999E-02     8.85506819E-25
  -1.41000003E-02     8.87100909E-25
  -1.40899997E-02     8.88507054E-25
  -1.40800001E-02     8.89581088E-25
  -1.40699996E-02     8.90218882E-25
  -1.40600000E-02     8.90366300E-25
  -1.40500003E-02     8.90025019E-25
  -1.40399998E-02     8.89249372E-25
  -1.40300002E-02     8.88137374E-25
  -1.40199997E-02     8.86816229E-25
  -1.40100000E-02     8.85425073E-25
  -1.40000004E-02     8.84095152E-25
  -1.39899999E-02     8.82932963E-25
  -1.39800003E-02     8.82006445E-25
  -1.39699997E-02     8.81336407E-25
  -1.39600001E-02     8.80894546E-25
  -1.39499996E-02     8.80608387E-25
  -1.39400000E-02     8.80371926E-25
  -1.39300004E-02     8.80060819E-25
  -1.39199998E-02     8.79549933E-25
  -1.39100002E-02     8.78731884E-25