  -2.19999999E-02     1.00000002E-24
  -2.19899993E-02     9.99999428E-25
  -2.19800007E-02     9.99998343E-25
  -2.19700001E-02     9.99997456E-25
  -2.19599996E-02     9.99996963E-25
  -2.19500009E-02     9.99996864E-25
  -2.19400004E-02     9.99996765E-25
  -2.19299998E-02     9.99996470E-25
  -2.19199993E-02     9.99995582E-25
  -2.19100006E-02     9.99994300E-25
  -2.19000001E-02     9.99993018E-25
  -2.18899995E-02     9.99992032E-25
  -2.18800008E-02     9.99991638E-25
  -2.18700003E-02     9.99991835E-25
  -2.18599997E-02     9.99992032E-25
  -2.18499992E-02     9.99991835E-25
  -2.18400005E-02     9.99991046E-25
  -2.18300000E-02     9.99989962E-25
  -2.18199994E-02     9.99988975E-25
  -2.18100008E-02     9.99988384E-25
  -2.18000002E-02     9.99988187E-25
  -2.17899997E-02     9.99988285E-25
  -2.17799991E-02     9.99988384E-25
  -2.17700005E-02     9.99987891E-25
  -2.17599999E-02     9.99986806E-25
  -2.17499994E-02     9.99985327E-25
  -2.17400007E-02     9.99984144E-25
  -2.17300002E-02     9.99983552E-25
  -2.17199996E-02     9.99983552E-25
  -2.17099991E-02     9.99984045E-25
  -2.17000004E-02     9.99984538E-25
  -2.16899998E-02     9.99984637E-25
  -2.16799993E-02     9.99984242E-25
  -2.16700006E-02     9.99983651E-25
  -2.16600001E-02     9.99983059E-25
  -2.16499995E-02     9.99982665E-25
  -2.16400009E-02     9.99982073E-25
  -2.16300003E-02     9.99980594E-25
  -2.16199998E-02     9.99978227E-25
  -2.16099992E-02     9.99974875E-25
  -2.16000006E-02     9.99971029E-25
  -2.15900000E-02     9.99967578E-25
  -2.15799995E-02     9.99965014E-25
  -2.15700008E-02     9.99963929E-25
  -2.15600003E-02     9.99963929E-25
  -2.15499997E-02     9.99964422E-25
  -2.15399992E-02     9.99965112E-25
  -2.15300005E-02     9.99965901E-25
  -2.15200000E-02     9.99966887E-25
  -2.15099994E-02     9.99969155E-25
  -2.15000007E-02     9.99973593E-25
  -2.14900002E-02     9.99980692E-25
  -2.14799996E-02     9.99990849E-25
  -2.14699991E-02     1.00000387E-24
  -2.14600004E-02     1.00001905E-24
  -2.14499999E-02     1.00003581E-24
  -2.14399993E-02     1.00005287E-24
  -2.14300007E-02     1.00006816E-24
  -2.14200001E-02     1.00007910E-24
  -2.14099996E-02     1.00008186E-24
  -2.14000009E-02     1.00007250E-24
  -2.13900004E-02     1.00004804E-24
  -2.13799998E-02     1.00000692E-24
  -2.13699993E-02     9.99950913E-25
  -2.13600006E-02     9.99885043E-25
  -2.13500001E-02     9.99818483E-25
  -2.13399995E-02     9.99763460E-25
  -2.13300008E-02     9.99735554E-25
  -2.13200003E-02     9.99753205E-25
  -2.13099997E-02     9.99836528E-25
  -2.12999992E-02     1.00000633E-24
  -2.12900005E-02     1.00028204E-24
  -2.12800000E-02     1.00068061E-24
  -2.12699994E-02     1.00121378E-24
  -2.12600008E-02     1.00188638E-24
  -2.12500002E-02     1.00269615E-24
  -2.12399997E-02     1.00363282E-24
  -2.12299991E-02     1.00468023E-24
  -2.12200005E-02     1.00581747E-24
  -2.12099999E-02     1.00702118E-24
  -2.11999994E-02     1.00826797E-24
  -2.11900007E-02     1.00953685E-24
  -2.11800002E-02     1.01081057E-24
  -2.11699996E-02     1.01207876E-24
  -2.11599991E-02     1.01333887E-24
  -2.11500004E-02     1.01459700E-24
  -2.11399999E-02     1.01586707E-24
  -2.11299993E-02     1.01716839E-24
  -2.11200006E-02     1.01852277E-24
  -2.11100001E-02     1.01995090E-24
  -2.10999995E-02     1.02146887E-24
  -2.10900009E-02     1.02308554E-24
  -2.10800003E-02     1.02479954E-24
  -2.10699998E-02     1.02659893E-24
  -2.10599992E-02     1.02845995E-24
  -2.10500006E-02     1.03034710E-24
  -2.10400000E-02     1.03221434E-24
  -2.10299995E-02     1.03400732E-24
  -2.10200008E-02     1.03566639E-24
  -2.10100003E-02     1.03713151E-24
  -2.09999997E-02     1.03834536E-24
  -2.09899992E-02     1.03925808E-24
  -2.09800005E-02     1.03983030E-24
  -2.09700000E-02     1.04003501E-24
  -2.09599994E-02     1.03985978E-24
  -2.09500007E-02     1.03930817E-24
  -2.09400002E-02     1.03840049E-24
  -2.09299996E-02     1.03717420E-24
  -2.09199991E-02     1.03568276E-24
  -2.09100004E-02     1.03399302E-24
  -2.08999999E-02     1.03218298E-24
  -2.08899993E-02     1.03033705E-24
  -2.08800007E-02     1.02854209E-24
  -2.08700001E-02     1.02688302E-24
  -2.08599996E-02     1.02543832E-24
  -2.08500009E-02     1.02427603E-24
  -2.08400004E-02     1.02345019E-24
  -2.08299998E-02     1.02299679E-24
  -2.08199993E-02     1.02293161E-24
  -2.08100006E-02     1.02324814E-24
  -2.08000001E-02     1.02391799E-24
  -2.07899995E-02     1.02489351E-24
  -2.07800008E-02     1.02611072E-24
  -2.07700003E-02     1.02749517E-24
  -2.07599998E-02     1.02896650E-24
  -2.07499992E-02     1.03044325E-24
  -2.07400005E-02     1.03184821E-24
  -2.07300000E-02     1.03311196E-24
  -2.07199994E-02     1.03417702E-24
  -2.07100008E-02     1.03499971E-24
  -2.07000002E-02     1.03555171E-24
  -2.06899997E-02     1.03581874E-24
  -2.06799991E-02     1.03579823E-24
  -2.06700005E-02     1.03549669E-24
  -2.06599999E-02     1.03492595E-24
  -2.06499994E-02     1.03410129E-24
  -2.06400007E-02     1.03303929E-24
  -2.06300002E-02     1.03175857E-24
  -2.06199996E-02     1.03027985E-24
  -2.06099991E-02     1.02862729E-24
  -2.06000004E-02     1.02682957E-24
  -2.05899999E-02     1.02492092E-24
  -2.05799993E-02     1.02294207E-24
  -2.05700006E-02     1.02094083E-24
  -2.05600001E-02     1.01897114E-24
  -2.05499995E-02     1.01709178E-24
  -2.05400009E-02     1.01536240E-24
  -2.05300003E-02     1.01383881E-24
  -2.05199998E-02     1.01256795E-24
  -2.05099992E-02     1.01158208E-24
  -2.05000006E-02     1.01089606E-24
  -2.04900000E-02     1.01050567E-24
  -2.04799995E-02     1.01038695E-24
  -2.04700008E-02     1.01050005E-24
  -2.04600003E-02     1.01079154E-24
  -2.04499997E-02     1.01119958E-24
  -2.04399992E-02     1.01166007E-24
  -2.04300005E-02     1.01211308E-24
  -2.04200000E-02     1.01250928E-24
  -2.04099994E-02     1.01281447E-24
  -2.04000007E-02     1.01301336E-24
  -2.03900002E-02     1.01310901E-24
  -2.03799997E-02     1.01312104E-24
  -2.03699991E-02     1.01308140E-24
  -2.03600004E-02     1.01302825E-24
  -2.03499999E-02     1.01299976E-24
  -2.03399993E-02     1.01302894E-24
  -2.03300007E-02     1.01313860E-24
  -2.03200001E-02     1.01333818E-24
  -2.03099996E-02     1.01362217E-24
  -2.03000009E-02     1.01397055E-24
  -2.02900004E-02     1.01435246E-24
  -2.02799998E-02     1.01473150E-24
  -2.02699993E-02     1.01507170E-24
  -2.02600006E-02     1.01534435E-24
  -2.02500001E-02     1.01553318E-24
  -2.02399995E-02     1.01563761E-24
  -2.02300008E-02     1.01567360E-24
  -2.02200003E-02     1.01567212E-24
  -2.02099998E-02     1.01567478E-24
  -2.01999992E-02     1.01572892E-24
  -2.01900005E-02     1.01588028E-24
  -2.01800000E-02     1.01616516E-24
  -2.01699995E-02     1.01660377E-24
  -2.01600008E-02     1.01719482E-24
  -2.01500002E-02     1.01791209E-24
  -2.01399997E-02     1.01870539E-24
  -2.01299991E-02     1.01950372E-24
  -2.01200005E-02     1.02022227E-24
  -2.01099999E-02     1.02077014E-24
  -2.00999994E-02     1.02105935E-24
  -2.00900007E-02     1.02101291E-24
  -2.00800002E-02     1.02057292E-24
  -2.00699996E-02     1.01970547E-24
  -2.00599991E-02     1.01840483E-24
  -2.00500004E-02     1.01669222E-24
  -2.00399999E-02     1.01461327E-24
  -2.00299993E-02     1.01223269E-24
  -2.00200006E-02     1.00962491E-24
  -2.00100001E-02     1.00686626E-24
  -1.99999996E-02     1.00402646E-24
  -1.99900009E-02     1.00116201E-24
  -1.99800003E-02     9.98312942E-25
  -1.99699998E-02     9.95501244E-25
  -1.99599992E-02     9.92732244E-25
  -1.99500006E-02     9.89998644E-25
  -1.99400000E-02     9.87285554E-25
  -1.99299995E-02     9.84577197E-25
  -1.99200008E-02     9.81864502E-25
  -1.99100003E-02     9.79151116E-25
  -1.98999997E-02     9.76457156E-25
  -1.98899992E-02     9.73821670E-25
  -1.98800005E-02     9.71299583E-25
  -1.98700000E-02     9.68958540E-25
  -1.98599994E-02     9.66871411E-25
  -1.98500007E-02     9.65109688E-25
  -1.98400002E-02     9.63735985E-25
  -1.98299997E-02     9.62797043E-25
  -1.98199991E-02     9.62318205E-25
  -1.98100004E-02     9.62300949E-25
  -1.97999999E-02     9.62720425E-25
  -1.97899994E-02     9.63527824E-25
  -1.97800007E-02     9.64653923E-25
  -1.97700001E-02     9.66015892E-25
  -1.97599996E-02     9.67523405E-25
  -1.97500009E-02     9.69086138E-25
  -1.97400004E-02     9.70620571E-25
  -1.97299998E-02     9.72054030E-25
  -1.97199993E-02     9.73328435E-25
  -1.97100006E-02     9.74401286E-25
  -1.97000001E-02     9.75245860E-25
  -1.96899995E-02     9.75850423E-25
  -1.96800008E-02     9.76216455E-25
  -1.96700003E-02     9.76355787E-25
  -1.96599998E-02     9.76286762E-25
  -1.96499992E-02     9.76032059E-25
  -1.96400005E-02     9.75615343E-25
  -1.96300000E-02     9.75060478E-25
  -1.96199995E-02     9.74391327E-25
  -1.96100008E-02     9.73631752E-25
  -1.96000002E-02     9.72806801E-25
  -1.95899997E-02     9.71942209E-25
  -1.95799991E-02     9.71063714E-25
  -1.95700005E-02     9.70196559E-25
  -1.95599999E-02     9.69364212E-25
  -1.95499994E-02     9.68588071E-25
  -1.95400007E-02     9.67886971E-25
  -1.95300002E-02     9.67276886E-25
  -1.95199996E-02     9.66770437E-25
  -1.95099991E-02     9.66376204E-25
  -1.95000004E-02     9.66098624E-25
  -1.94899999E-02     9.65939372E-25
  -1.94799993E-02     9.65897760E-25
  -1.94700006E-02     9.65974378E-25
  -1.94600001E-02     9.66171396E-25
  -1.94499996E-02     9.66494632E-25
  -1.94400009E-02     9.66952072E-25
  -1.94300003E-02     9.67552889E-25
  -1.94199998E-02     9.68304476E-25
  -1.94099993E-02     9.69209792E-25
  -1.94000006E-02     9.70265387E-25
  -1.93900000E-02     9.71459525E-25
  -1.93799995E-02     9.72770415E-25
  -1.93700008E-02     9.74165022E-25
  -1.93600003E-02     9.75599270E-25
  -1.93499997E-02     9.77019219E-25
  -1.93399992E-02     9.78363340E-25
  -1.93300005E-02     9.79567635E-25
  -1.93200000E-02     9.80571066E-25
  -1.93099994E-02     9.81321667E-25
  -1.93000007E-02     9.81780587E-25
  -1.92900002E-02     9.81925934E-25
  -1.92799997E-02     9.81753174E-25
  -1.92699991E-02     9.81275518E-25
  -1.92600004E-02     9.80521861E-25
  -1.92499999E-02     9.79533911E-25
  -1.92399994E-02     9.78361861E-25
  -1.92300007E-02     9.77059649E-25
  -1.92200001E-02     9.75678748E-25
  -1.92099996E-02     9.74262644E-25
  -1.92000009E-02     9.72841511E-25
  -1.91900004E-02     9.71430929E-25
  -1.91799998E-02     9.70030208E-25
  -1.91699993E-02     9.68625739E-25
  -1.91600006E-02     9.67193562E-25
  -1.91500001E-02     9.65704883E-25
  -1.91399995E-02     9.64130810E-25
  -1.91300008E-02     9.62446691E-25
  -1.91200003E-02     9.60637438E-25
  -1.91099998E-02     9.58700785E-25
  -1.90999992E-02     9.56649450E-25
  -1.90900005E-02     9.54511637E-25
  -1.90800000E-02     9.52329549E-25
  -1.90699995E-02     9.50155252E-25
  -1.90600008E-02     9.48046133E-25
  -1.90500002E-02     9.46058401E-25
  -1.90399997E-02     9.44242049E-25
  -1.90299992E-02     9.42635928E-25
  -1.90200005E-02     9.41264986E-25
  -1.90099999E-02     9.40138493E-25
  -1.89999994E-02     9.39250531E-25
  -1.89900007E-02     9.38581972E-25
  -1.89800002E-02     9.38103725E-25
  -1.89699996E-02     9.37780489E-25
  -1.89599991E-02     9.37575780E-25
  -1.89500004E-02     9.37456958E-25
  -1.89399999E-02     9.37399765E-25
  -1.89299993E-02     9.37391581E-25
  -1.89200006E-02     9.37432010E-25
  -1.89100001E-02     9.37532590E-25
  -1.88999996E-02     9.37713042E-25
  -1.88900009E-02     9.37998313E-25
  -1.88800003E-02     9.38413747E-25
  -1.88699998E-02     9.38980840E-25
  -1.88599993E-02     9.39713198E-25
  -1.88500006E-02     9.40613387E-25
  -1.88400000E-02     9.41671250E-25
  -1.88299995E-02     9.42862528E-25
  -1.88200008E-02     9.44150640E-25
  -1.88100003E-02     9.45488548E-25
  -1.87999997E-02     9.46823991E-25
  -1.87899992E-02     9.48104410E-25
  -1.87800005E-02     9.49282081E-25
  -1.87700000E-02     9.50318842E-25
  -1.87599994E-02     9.51189350E-25
  -1.87500007E-02     9.51882265E-25
  -1.87400002E-02     9.52401237E-25
  -1.87299997E-02     9.52762930E-25
  -1.87199991E-02     9.52995052E-25
  -1.87100004E-02     9.53132215E-25
  -1.86999999E-02     9.53212285E-25
  -1.86899994E-02     9.53270858E-25
  -1.86800007E-02     9.53337023E-25
  -1.86700001E-02     9.53429320E-25
  -1.86599996E-02     9.53554256E-25
  -1.86500009E-02     9.53705717E-25
  -1.86400004E-02     9.53866152E-25
  -1.86299998E-02     9.54009429E-25
  -1.86199993E-02     9.54103796E-25
  -1.86100006E-02     9.54116517E-25
  -1.86000001E-02     9.54017022E-25
  -1.85899995E-02     9.53780955E-25
  -1.85800008E-02     9.53392638E-25
  -1.85700003E-02     9.52847239E-25
  -1.85599998E-02     9.52151464E-25
  -1.85499992E-02     9.51323357E-25
  -1.85400005E-02     9.50391022E-25
  -1.85300000E-02     9.49389169E-25
  -1.85199995E-02     9.48357438E-25
  -1.85100008E-02     9.47336159E-25
  -1.85000002E-02     9.46364282E-25
  -1.84899997E-02     9.45476813E-25
  -1.84799992E-02     9.44702546E-25
  -1.84700005E-02     9.44063766E-25
  -1.84599999E-02     9.43574771E-25
  -1.84499994E-02     9.43241773E-25
  -1.84400007E-02     9.43062899E-25
  -1.84300002E-02     9.43028485E-25
  -1.84199996E-02     9.43122064E-25
  -1.84099991E-02     9.43322829E-25
  -1.84000004E-02     9.43606227E-25
  -1.83899999E-02     9.43946127E-25
  -1.83799993E-02     9.44315807E-25
  -1.83700006E-02     9.44690319E-25
  -1.83600001E-02     9.45047180E-25
  -1.83499996E-02     9.45367852E-25
  -1.83400009E-02     9.45639122E-25
  -1.83300003E-02     9.45854678E-25
  -1.83199998E-02     9.46015211E-25
  -1.83099993E-02     9.46128511E-25
  -1.83000006E-02     9.46208580E-25
  -1.82900000E-02     9.46273563E-25
  -1.82799995E-02     9.46344659E-25
  -1.82700008E-02     9.46443464E-25
  -1.82600003E-02     9.46589798E-25
  -1.82499997E-02     9.46800128E-25
  -1.82399992E-02     9.47085498E-25
  -1.82300005E-02     9.47449557E-25
  -1.82200000E-02     9.47888460E-25
  -1.82099994E-02     9.48390077E-25
  -1.82000007E-02     9.48935574E-25
  -1.81900002E-02     9.49500201E-25
  -1.81799997E-02     9.50057531E-25
  -1.81699991E-02     9.50581236E-25
  -1.81600004E-02     9.51048242E-25
  -1.81499999E-02     9.51440700E-25
  -1.81399994E-02     9.51748159E-25
  -1.81300007E-02     9.51968153E-25
  -1.81200001E-02     9.52105612E-25
  -1.81099996E-02     9.52172566E-25
  -1.81000009E-02     9.52185287E-25
  -1.80900004E-02     9.52161818E-25
  -1.80799998E-02     9.52118924E-25
  -1.80699993E-02     9.52069423E-25
  -1.80600006E-02     9.52018935E-25
  -1.80500001E-02     9.51963715E-25
  -1.80399995E-02     9.51891732E-25
  -1.80300009E-02     9.51782770E-25
  -1.80200003E-02     9.51611292E-25
  -1.80099998E-02     9.51350277E-25
  -1.79999992E-02     9.50974582E-25
  -1.79900005E-02     9.50466359E-25
  -1.79800000E-02     9.49817816E-25
  -1.79699995E-02     9.49034576E-25
  -1.79600008E-02     9.48136655E-25
  -1.79500002E-02     9.47158566E-25
  -1.79399997E-02     9.46146951E-25
  -1.79299992E-02     9.45156141E-25
  -1.79200005E-02     9.44243429E-25
  -1.79099999E-02     9.43461767E-25
  -1.78999994E-02     9.42854344E-25
  -1.78900007E-02     9.42448869E-25
  -1.78800002E-02     9.42254514E-25
  -1.78699996E-02     9.42259839E-25
  -1.78599991E-02     9.42434670E-25
  -1.78500004E-02     9.42733550E-25
  -1.78399999E-02     9.43101257E-25
  -1.78299993E-02     9.43480897E-25
  -1.78200006E-02     9.43820896E-25
  -1.78100001E-02     9.44083389E-25
  -1.77999996E-02     9.44249839E-25
  -1.77900009E-02     9.44325372E-25
  -1.77800003E-02     9.44339473E-25
  -1.77699998E-02     9.44343812E-25
  -1.77599993E-02     9.44407414E-25
  -1.77500006E-02     9.44608672E-25
  -1.77400000E-02     9.45025782E-25
  -1.77299995E-02     9.45727671E-25
  -1.77200008E-02     9.46765023E-25
  -1.77100003E-02     9.48164068E-25
  -1.76999997E-02     9.49922636E-25
  -1.76899992E-02     9.52010258E-25
  -1.76800005E-02     9.54370530E-25
  -1.76700000E-02     9.56927622E-25
  -1.76599994E-02     9.59594367E-25
  -1.76500008E-02     9.62282114E-25
  -1.76400002E-02     9.64910007E-25
  -1.76299997E-02     9.67414049E-25
  -1.76199991E-02     9.69752529E-25
  -1.76100004E-02     9.71909077E-25
  -1.75999999E-02     9.73891485E-25
  -1.75899994E-02     9.75727953E-25
  -1.75800007E-02     9.77459996E-25
  -1.75700001E-02     9.79133958E-25
  -1.75599996E-02     9.80792243E-25
  -1.75500009E-02     9.82465614E-25
  -1.75400004E-02     9.84166398E-25
  -1.75299998E-02     9.85885424E-25
  -1.75199993E-02     9.87590646E-25
  -1.75100006E-02     9.89229504E-25
  -1.75000001E-02     9.90734059E-25
  -1.74899995E-02     9.92029073E-25
  -1.74800009E-02     9.93040393E-25
  -1.74700003E-02     9.93704614E-25
  -1.74599998E-02     9.93975883E-25
  -1.74499992E-02     9.93831620E-25
  -1.74400005E-02     9.93274685E-25
  -1.74300000E-02     9.92332982E-25
  -1.74199995E-02     9.91057394E-25
  -1.74100008E-02     9.89516650E-25
  -1.74000002E-02     9.87792101E-25
  -1.73899997E-02     9.85970227E-25
  -1.73799992E-02     9.84136618E-25
  -1.73700005E-02     9.82368880E-25
  -1.73599999E-02     9.80731993E-25
  -1.73499994E-02     9.79274573E-25
  -1.73400007E-02     9.78029454E-25
  -1.73300002E-02     9.77014585E-25
  -1.73199996E-02     9.76236571E-25
  -1.73099991E-02     9.75693539E-25
  -1.73000004E-02     9.75378783E-25
  -1.72899999E-02     9.75283627E-25
  -1.72799993E-02     9.75398603E-25
  -1.72700007E-02     9.75715923E-25
  -1.72600001E-02     9.76229570E-25
  -1.72499996E-02     9.76935502E-25
  -1.72400009E-02     9.77829873E-25
  -1.72300003E-02     9.78907062E-25
  -1.72199998E-02     9.80156519E-25
  -1.72099993E-02     9.81560692E-25
  -1.72000006E-02     9.83093350E-25
  -1.71900000E-02     9.84719488E-25
  -1.71799995E-02     9.86397790E-25
  -1.71700008E-02     9.88082402E-25
  -1.71600003E-02     9.89726684E-25
  -1.71499997E-02     9.91285572E-25
  -1.71399992E-02     9.92718833E-25
  -1.71300005E-02     9.93993140E-25
  -1.71200000E-02     9.95084923E-25
  -1.71099994E-02     9.95981562E-25
  -1.71000008E-02     9.96682859E-25
  -1.70900002E-02     9.97200648E-25
  -1.70799997E-02     9.97556128E-25
  -1.70699991E-02     9.97777601E-25
  -1.70600004E-02     9.97896226E-25
  -1.70499999E-02     9.97943361E-25
  -1.70399994E-02     9.97948390E-25
  -1.70300007E-02     9.97937148E-25
  -1.70200001E-02     9.97931626E-25
  -1.70099996E-02     9.97950066E-25
  -1.70000009E-02     9.98007653E-25
  -1.69900004E-02     9.98116713E-25
  -1.69799998E-02     9.98287403E-25
  -1.69699993E-02     9.98529484E-25
  -1.69600006E-02     9.98852621E-25
  -1.69500001E-02     9.99267858E-25
  -1.69399995E-02     9.99786830E-25
  -1.69300009E-02     1.00042088E-24
  -1.69200003E-02     1.00117828E-24
  -1.69099998E-02     1.00206190E-24
  -1.68999992E-02     1.00306770E-24
  -1.68900006E-02     1.00418355E-24
  -1.68800000E-02     1.00539021E-24
  -1.68699995E-02     1.00666244E-24
  -1.68600008E-02     1.00797126E-24
  -1.68500002E-02     1.00928541E-24
  -1.68399997E-02     1.01057519E-24
  -1.68299992E-02     1.01181410E-24
  -1.68200005E-02     1.01298171E-24
  -1.68099999E-02     1.01406571E-24
  -1.67999994E-02     1.01506273E-24
  -1.67900007E-02     1.01597781E-24
  -1.67800002E-02     1.01682248E-24
  -1.67699996E-02     1.01761144E-24
  -1.67599991E-02     1.01835878E-24
  -1.67500004E-02     1.01907418E-24
  -1.67399999E-02     1.01976148E-24
  -1.67299993E-02     1.02041771E-24
  -1.67200007E-02     1.02103332E-24
  -1.67100001E-02     1.02159410E-24
  -1.66999996E-02     1.02208329E-24
  -1.66900009E-02     1.02248364E-24
  -1.66800003E-02     1.02278153E-24
  -1.66699998E-02     1.02297056E-24
  -1.66599993E-02     1.02305379E-24
  -1.66500006E-02     1.02304649E-24
  -1.66400000E-02     1.02297451E-24
  -1.66299995E-02     1.02287275E-24
  -1.66200008E-02     1.02278035E-24
  -1.66100003E-02     1.02273608E-24
  -1.65999997E-02     1.02277197E-24
  -1.65899992E-02     1.02291071E-24
  -1.65800005E-02     1.02316157E-24
  -1.65700000E-02     1.02351922E-24
  -1.65599994E-02     1.02396404E-24
  -1.65500008E-02     1.02446368E-24
  -1.65400002E-02     1.02497654E-24
  -1.65299997E-02     1.02545617E-24
  -1.65199991E-02     1.02585711E-24
  -1.65100005E-02     1.02614149E-24
  -1.64999999E-02     1.02628309E-24
  -1.64899994E-02     1.02627096E-24
  -1.64800007E-02     1.02611033E-24
  -1.64700001E-02     1.02582052E-24
  -1.64599996E-02     1.02543230E-24
  -1.64500009E-02     1.02498315E-24
  -1.64400004E-02     1.02451298E-24
  -1.64299998E-02     1.02406038E-24
  -1.64199993E-02     1.02365737E-24
  -1.64100006E-02     1.02332683E-24
  -1.64000001E-02     1.02307943E-24
  -1.63899995E-02     1.02291387E-24
  -1.63800009E-02     1.02281822E-24
  -1.63700003E-02     1.02277315E-24
  -1.63599998E-02     1.02275619E-24
  -1.63499992E-02     1.02274534E-24
  -1.63400006E-02     1.02272276E-24
  -1.63300000E-02     1.02267671E-24
  -1.63199995E-02     1.02260236E-24
  -1.63100008E-02     1.02250208E-24
  -1.63000003E-02     1.02238464E-24
  -1.62899997E-02     1.02226404E-24
  -1.62799992E-02     1.02215764E-24
  -1.62700005E-02     1.02208369E-24
  -1.62599999E-02     1.02205913E-24
  -1.62499994E-02     1.02209739E-24
  -1.62400007E-02     1.02220655E-24
  -1.62300002E-02     1.02238977E-24
  -1.62199996E-02     1.02264595E-24
  -1.62099991E-02     1.02297066E-24
  -1.62000004E-02     1.02335760E-24
  -1.61899999E-02     1.02379995E-24
  -1.61799993E-02     1.02428993E-24
  -1.61700007E-02     1.02481916E-24
  -1.61600001E-02     1.02537797E-24
  -1.61499996E-02     1.02595473E-24
  -1.61400009E-02     1.02653562E-24
  -1.61300004E-02     1.02710479E-24
  -1.61199998E-02     1.02764240E-24
  -1.61099993E-02     1.02812518E-24
  -1.61000006E-02     1.02852612E-24
  -1.60900000E-02     1.02881573E-24
  -1.60799995E-02     1.02896354E-24
  -1.60700008E-02     1.02894185E-24
  -1.60600003E-02     1.02872984E-24
  -1.60499997E-02     1.02831648E-24
  -1.60399992E-02     1.02770383E-24
  -1.60300005E-02     1.02690797E-24
  -1.60200000E-02     1.02595867E-24
  -1.60099994E-02     1.02489805E-24
  -1.60000008E-02     1.02377816E-24
  -1.59900002E-02     1.02265719E-24
  -1.59799997E-02     1.02159519E-24
  -1.59699991E-02     1.02064816E-24
  -1.59600005E-02     1.01986245E-24
  -1.59499999E-02     1.01927012E-24
  -1.59399994E-02     1.01888584E-24
  -1.59300007E-02     1.01870598E-24
  -1.59200002E-02     1.01871062E-24
  -1.59099996E-02     1.01886730E-24
  -1.59000009E-02     1.01913581E-24
  -1.58900004E-02     1.01947453E-24
  -1.58799998E-02     1.01984598E-24
  -1.58699993E-02     1.02022158E-24
  -1.58600006E-02     1.02058446E-24
  -1.58500001E-02     1.02093146E-24
  -1.58399995E-02     1.02127284E-24
  -1.58300009E-02     1.02162881E-24
  -1.58200003E-02     1.02202482E-24
  -1.58099998E-02     1.02248472E-24
  -1.57999992E-02     1.02302381E-24
  -1.57900006E-02     1.02364179E-24
  -1.57800000E-02     1.02431892E-24
  -1.57699995E-02     1.02501411E-24
  -1.57600008E-02     1.02566669E-24
  -1.57500003E-02     1.02620065E-24
  -1.57399997E-02     1.02653178E-24
  -1.57299992E-02     1.02657576E-24
  -1.57200005E-02     1.02625814E-24
  -1.57099999E-02     1.02552381E-24
  -1.56999994E-02     1.02434486E-24
  -1.56900007E-02     1.02272602E-24
  -1.56800002E-02     1.02070584E-24
  -1.56699996E-02     1.01835464E-24
  -1.56599991E-02     1.01576826E-24
  -1.56500004E-02     1.01305922E-24
  -1.56399999E-02     1.01034544E-24
  -1.56299993E-02     1.00774003E-24
  -1.56199997E-02     1.00533982E-24
  -1.56100001E-02     1.00321818E-24
  -1.55999996E-02     1.00142036E-24
  -1.55900000E-02     9.99962056E-25
  -1.55800004E-02     9.98832604E-25
  -1.55699998E-02     9.98000356E-25
  -1.55600002E-02     9.97420740E-25
  -1.55499997E-02     9.97045834E-25
  -1.55400001E-02     9.96832940E-25
  -1.55300004E-02     9.96751392E-25
  -1.55199999E-02     9.96787186E-25
  -1.55100003E-02     9.96943775E-25
  -1.54999997E-02     9.97239499E-25
  -1.54900001E-02     9.97701871E-25
  -1.54799996E-02     9.98360175E-25
  -1.54700000E-02     9.99237684E-25
  -1.54600004E-02     1.00034475E-24
  -1.54499998E-02     1.00167191E-24
  -1.54400002E-02     1.00318820E-24
  -1.54299997E-02     1.00484017E-24
  -1.54200001E-02     1.00655595E-24
  -1.54100005E-02     1.00825160E-24
  -1.53999999E-02     1.00983968E-24
  -1.53900003E-02     1.01123902E-24
  -1.53799998E-02     1.01238385E-24
  -1.53700002E-02     1.01323129E-24
  -1.53599996E-02     1.01376633E-24
  -1.53500000E-02     1.01400289E-24
  -1.53400004E-02     1.01398140E-24
  -1.53299998E-02     1.01376377E-24
  -1.53200002E-02     1.01342446E-24
  -1.53099997E-02     1.01304305E-24
  -1.53000001E-02     1.01269338E-24
  -1.52899995E-02     1.01243533E-24
  -1.52799999E-02     1.01230842E-24
  -1.52700003E-02     1.01232863E-24
  -1.52599998E-02     1.01248966E-24
  -1.52500002E-02     1.01276527E-24
  -1.52399996E-02     1.01311641E-24
  -1.52300000E-02     1.01349773E-24
  -1.52200004E-02     1.01386543E-24
  -1.52099999E-02     1.01418463E-24
  -1.52000003E-02     1.01443499E-24
  -1.51899997E-02     1.01461357E-24
  -1.51800001E-02     1.01473505E-24
  -1.51699996E-02     1.01482893E-24
  -1.51600000E-02     1.01493365E-24
  -1.51500003E-02     1.01508984E-24
  -1.51399998E-02     1.01533262E-24
  -1.51300002E-02     1.01568514E-24
  -1.51199996E-02     1.01615362E-24
  -1.51100000E-02     1.01672397E-24
  -1.51000004E-02     1.01736127E-24
  -1.50899999E-02     1.01801317E-24
  -1.50800003E-02     1.01861339E-24
  -1.50699997E-02     1.01908917E-24
  -1.50600001E-02     1.01936863E-24
  -1.50499996E-02     1.01938894E-24
  -1.50400000E-02     1.01910317E-24
  -1.50300004E-02     1.01848619E-24
  -1.50199998E-02     1.01753699E-24
  -1.50100002E-02     1.01627974E-24
  -1.49999997E-02     1.01476257E-24
  -1.49900001E-02     1.01305301E-24
  -1.49800004E-02     1.01123231E-24
  -1.49699999E-02     1.00938924E-24
  -1.49600003E-02     1.00761263E-24
  -1.49499997E-02     1.00598511E-24
  -1.49400001E-02     1.00457748E-24
  -1.49299996E-02     1.00344419E-24
  -1.49200000E-02     1.00262101E-24
  -1.49100004E-02     1.00212363E-24
  -1.48999998E-02     1.00194801E-24
  -1.48900002E-02     1.00207186E-24
  -1.48799997E-02     1.00245811E-24
  -1.48700001E-02     1.00305824E-24
  -1.48600005E-02     1.00381604E-24
  -1.48499999E-02     1.00467254E-24
  -1.48400003E-02     1.00556928E-24
  -1.48299998E-02     1.00645113E-24
  -1.48200002E-02     1.00727006E-24
  -1.48099996E-02     1.00798615E-24
  -1.48000000E-02     1.00857020E-24
  -1.47900004E-02     1.00900447E-24
  -1.47799999E-02     1.00928333E-24
  -1.47700002E-02     1.00941123E-24
  -1.47599997E-02     1.00940186E-24
  -1.47500001E-02     1.00927416E-24
  -1.47399995E-02     1.00904924E-24
  -1.47299999E-02     1.00874701E-24
  -1.47200003E-02     1.00838374E-24
  -1.47099998E-02     1.00796929E-24
  -1.47000002E-02     1.00750643E-24
  -1.46899996E-02     1.00699021E-24
  -1.46800000E-02     1.00640951E-24
  -1.46700004E-02     1.00574924E-24
  -1.46599999E-02     1.00499380E-24
  -1.46500003E-02     1.00413306E-24
  -1.46399997E-02     1.00316700E-24
  -1.46300001E-02     1.00211081E-24
  -1.46199996E-02     1.00099753E-24
  -1.46100000E-02     9.99878436E-25
  -1.46000003E-02     9.98819884E-25
  -1.45899998E-02     9.97899382E-25
  -1.45800002E-02     9.97198281E-25
  -1.45699997E-02     9.96794779E-25
  -1.45600000E-02     9.96755336E-25
  -1.45500004E-02     9.97126791E-25
  -1.45399999E-02     9.97928274E-25
  -1.45300003E-02     9.99148346E-25
  -1.45199997E-02     1.00074194E-24
  -1.45100001E-02     1.00263353E-24
  -1.44999996E-02     1.00472293E-24
  -1.44900000E-02     1.00689486E-24
  -1.44800004E-02     1.00902952E-24
  -1.44699998E-02     1.01101488E-24
  -1.44600002E-02     1.01275708E-24
  -1.44499997E-02     1.01418818E-24
  -1.44400001E-02     1.01527207E-24
  -1.44300004E-02     1.01600630E-24
  -1.44199999E-02     1.01641888E-24
  -1.44100003E-02     1.01656383E-24
  -1.43999998E-02     1.01651098E-24
  -1.43900001E-02     1.01633565E-24
  -1.43799996E-02     1.01610678E-24
  -1.43700000E-02     1.01587673E-24
  -1.43600004E-02     1.01567370E-24
  -1.43499998E-02     1.01549818E-24
  -1.43400002E-02     1.01532315E-24
  -1.43299997E-02     1.01509951E-24
  -1.43200001E-02     1.01476395E-24
  -1.43100005E-02     1.01424921E-24
  -1.42999999E-02     1.01349556E-24
  -1.42900003E-02     1.01246116E-24
  -1.42799998E-02     1.01113045E-24
  -1.42700002E-02     1.00951920E-24
  -1.42599996E-02     1.00767554E-24
  -1.42500000E-02     1.00567647E-24
  -1.42400004E-02     1.00362089E-24
  -1.42299999E-02     1.00161866E-24
  -1.42200002E-02     9.99777659E-25
  -1.42099997E-02     9.98192641E-25
  -1.42000001E-02     9.96934013E-25
  -1.41899996E-02     9.96039642E-25
  -1.41799999E-02     9.95510908E-25
  -1.41700003E-02     9.95313496E-25
  -1.41599998E-02     9.95381042E-25
  -1.41500002E-02     9.95623715E-25
  -1.41399996E-02     9.95938865E-25
  -1.41300000E-02     9.96222855E-25
  -1.41200004E-02     9.96382698E-25
  -1.41099999E-02     9.96346706E-25
  -1.41000003E-02     9.96071689E-25
  -1.40899997E-02     9.95546900E-25
  -1.40800001E-02     9.94793340E-25
  -1.40699996E-02     9.93860118E-25
  -1.40600000E-02     9.92816751E-25
  -1.40500003E-02     9.91743900E-25
  -1.40399998E-02     9.90723213E-25
  -1.40300002E-02     9.89828053E-25
  -1.40199997E-02     9.89114528E-25
  -1.40100000E-02     9.88616757E-25
  -1.40000004E-02     9.88344008E-25
  -1.39899999E-02     9.88281195E-25
  -1.39800003E-02     9.88392917E-25
  -1.39699997E-02     9.88629576E-25
  -1.39600001E-02     9.88934372E-25
  -1.39499996E-02     9.89251494E-25
  -1.39400000E-02     9.89532920E-25
  -1.39300004E-02     9.89743842E-25
  -1.39199998E-02     9.89866510E-25
  -1.39100002E-02     9.89900628E-25