  -2.19999999E-02     1.00000002E-24
  -2.19899993E-02     9.99999428E-25
  -2.19800007E-02     9.99998343E-25
  -2.19700001E-02     9.99997456E-25
  -2.19599996E-02     9.99996963E-25
  -2.19500009E-02     9.99996864E-25
  -2.19400004E-02     9.99996765E-25
  -2.19299998E-02     9.99996470E-25
  -2.19199993E-02     9.99995582E-25
  -2.19100006E-02     9.99994300E-25
  -2.19000001E-02     9.99993018E-25
  -2.18899995E-02     9.99992032E-25
  -2.18800008E-02     9.99991737E-25
  -2.18700003E-02     9.99991835E-25
  -2.18599997E-02     9.99992032E-25
  -2.18499992E-02     9.99991835E-25
  -2.18400005E-02     9.99991046E-25
  -2.18300000E-02     9.99989863E-25
  -2.18199994E-02     9.99988877E-25
  -2.18100008E-02     9.99988482E-25
  -2.18000002E-02     9.99988581E-25
  -2.17899997E-02     9.99988778E-25
  -2.17799991E-02     9.99988581E-25
  -2.17700005E-02     9.99987496E-25
  -2.17599999E-02     9.99985919E-25
  -2.17499994E-02     9.99984341E-25
  -2.17400007E-02     9.99983256E-25
  -2.17300002E-02     9.99982960E-25
  -2.17199996E-02     9.99983552E-25
  -2.17099991E-02     9.99984341E-25
  -2.17000004E-02     9.99984735E-25
  -2.16899998E-02     9.99984538E-25
  -2.16799993E-02     9.99983947E-25
  -2.16700006E-02     9.99983355E-25
  -2.16600001E-02     9.99983158E-25
  -2.16499995E-02     9.99983158E-25
  -2.16400009E-02     9.99982763E-25
  -2.16300003E-02     9.99981284E-25
  -2.16199998E-02     9.99978424E-25
  -2.16099992E-02     9.99974579E-25
  -2.16000006E-02     9.99970339E-25
  -2.15900000E-02     9.99966789E-25
  -2.15799995E-02     9.99964619E-25
  -2.15700008E-02     9.99963732E-25
  -2.15600003E-02     9.99963633E-25
  -2.15499997E-02     9.99963831E-25
  -2.15399992E-02     9.99964028E-25
  -2.15300005E-02     9.99964718E-25
  -2.15200000E-02     9.99966394E-25
  -2.15099994E-02     9.99970043E-25
  -2.15000007E-02     9.99976058E-25
  -2.14900002E-02     9.99984242E-25
  -2.14799996E-02     9.99994399E-25
  -2.14699991E-02     1.00000653E-24
  -2.14600004E-02     1.00002063E-24
  -2.14499999E-02     1.00003641E-24
  -2.14399993E-02     1.00005277E-24
  -2.14300007E-02     1.00006766E-24
  -2.14200001E-02     1.00007762E-24
  -2.14099996E-02     1.00007851E-24
  -2.14000009E-02     1.00006668E-24
  -2.13900004E-02     1.00003966E-24
  -2.13799998E-02     9.99997061E-25
  -2.13699993E-02     9.99940954E-25
  -2.13600006E-02     9.99876366E-25
  -2.13500001E-02     9.99811778E-25
  -2.13399995E-02     9.99758825E-25
  -2.13300008E-02     9.99732892E-25
  -2.13200003E-02     9.99752317E-25
  -2.13099997E-02     9.99837613E-25
  -2.12999992E-02     1.00000998E-24
  -2.12900005E-02     1.00028933E-24
  -2.12800000E-02     1.00069175E-24
  -2.12699994E-02     1.00122828E-24
  -2.12600008E-02     1.00190305E-24
  -2.12500002E-02     1.00271360E-24
  -2.12399997E-02     1.00365028E-24
  -2.12299991E-02     1.00469769E-24
  -2.12200005E-02     1.00583562E-24
  -2.12099999E-02     1.00704080E-24
  -2.11999994E-02     1.00828986E-24
  -2.11900007E-02     1.00956141E-24
  -2.11800002E-02     1.01083867E-24
  -2.11699996E-02     1.01211249E-24
  -2.11599991E-02     1.01338127E-24
  -2.11500004E-02     1.01465222E-24
  -2.11399999E-02     1.01593955E-24
  -2.11299993E-02     1.01726217E-24
  -2.11200006E-02     1.01864169E-24
  -2.11100001E-02     1.02009783E-24
  -2.10999995E-02     1.02164636E-24
  -2.10900009E-02     1.02329538E-24
  -2.10800003E-02     1.02504290E-24
  -2.10699998E-02     1.02687513E-24
  -2.10599992E-02     1.02876583E-24
  -2.10500006E-02     1.03067635E-24
  -2.10400000E-02     1.03255848E-24
  -2.10299995E-02     1.03435590E-24
  -2.10200008E-02     1.03600846E-24
  -2.10100003E-02     1.03745592E-24
  -2.09999997E-02     1.03864158E-24
  -2.09899992E-02     1.03951613E-24
  -2.09800005E-02     1.04004112E-24
  -2.09700000E-02     1.04019090E-24
  -2.09599994E-02     1.03995563E-24
  -2.09500007E-02     1.03934170E-24
  -2.09400002E-02     1.03837209E-24
  -2.09299996E-02     1.03708644E-24
  -2.09199991E-02     1.03553889E-24
  -2.09100004E-02     1.03379630E-24
  -2.08999999E-02     1.03193577E-24
  -2.08899993E-02     1.03004142E-24
  -2.08800007E-02     1.02819973E-24
  -2.08700001E-02     1.02649628E-24
  -2.08599996E-02     1.02501056E-24
  -2.08500009E-02     1.02381238E-24
  -2.08400004E-02     1.02295735E-24
  -2.08299998E-02     1.02248423E-24
  -2.08199993E-02     1.02241136E-24
  -2.08100006E-02     1.02273657E-24
  -2.08000001E-02     1.02343619E-24
  -2.07899995E-02     1.02446664E-24
  -2.07800008E-02     1.02576757E-24
  -2.07700003E-02     1.02726532E-24
  -2.07599998E-02     1.02887765E-24
  -2.07499992E-02     1.03052016E-24
  -2.07400005E-02     1.03211031E-24
  -2.07300000E-02     1.03357305E-24
  -2.07199994E-02     1.03484391E-24
  -2.07100008E-02     1.03587219E-24
  -2.07000002E-02     1.03662101E-24
  -2.06899997E-02     1.03706840E-24
  -2.06799991E-02     1.03720467E-24
  -2.06700005E-02     1.03703112E-24
  -2.06599999E-02     1.03655692E-24
  -2.06499994E-02     1.03579695E-24
  -2.06400007E-02     1.03476966E-24
  -2.06300002E-02     1.03349634E-24
  -2.06199996E-02     1.03200046E-24
  -2.06099991E-02     1.03030855E-24
  -2.06000004E-02     1.02845137E-24
  -2.05899999E-02     1.02646532E-24
  -2.05799993E-02     1.02439268E-24
  -2.05700006E-02     1.02228218E-24
  -2.05600001E-02     1.02018766E-24
  -2.05499995E-02     1.01816640E-24
  -2.05400009E-02     1.01627678E-24
  -2.05300003E-02     1.01457373E-24
  -2.05199998E-02     1.01310477E-24
  -2.05099992E-02     1.01190511E-24
  -2.05000006E-02     1.01099408E-24
  -2.04900000E-02     1.01037354E-24
  -2.04799995E-02     1.01002634E-24
  -2.04700008E-02     1.00991817E-24
  -2.04600003E-02     1.01000031E-24
  -2.04499997E-02     1.01021429E-24
  -2.04399992E-02     1.01049788E-24
  -2.04300005E-02     1.01079095E-24
  -2.04200000E-02     1.01104111E-24
  -2.04099994E-02     1.01120885E-24
  -2.04000007E-02     1.01127087E-24
  -2.03900002E-02     1.01122157E-24
  -2.03799997E-02     1.01107218E-24
  -2.03699991E-02     1.01084834E-24
  -2.03600004E-02     1.01058496E-24
  -2.03499999E-02     1.01032167E-24
  -2.03399993E-02     1.01009606E-24
  -2.03300007E-02     1.00993908E-24
  -2.03200001E-02     1.00987025E-24
  -2.03099996E-02     1.00989598E-24
  -2.03000009E-02     1.01000928E-24
  -2.02900004E-02     1.01019141E-24
  -2.02799998E-02     1.01041535E-24
  -2.02699993E-02     1.01064974E-24
  -2.02600006E-02     1.01086500E-24
  -2.02500001E-02     1.01103717E-24
  -2.02399995E-02     1.01115294E-24
  -2.02300008E-02     1.01121121E-24
  -2.02200003E-02     1.01122364E-24
  -2.02099998E-02     1.01121289E-24
  -2.01999992E-02     1.01120904E-24
  -2.01900005E-02     1.01124474E-24
  -2.01800000E-02     1.01134936E-24
  -2.01699995E-02     1.01154470E-24
  -2.01600008E-02     1.01183924E-24
  -2.01500002E-02     1.01222667E-24
  -2.01399997E-02     1.01268490E-24
  -2.01299991E-02     1.01317784E-24
  -2.01200005E-02     1.01365934E-24
  -2.01099999E-02     1.01407803E-24
  -2.00999994E-02     1.01438381E-24
  -2.00900007E-02     1.01453449E-24
  -2.00800002E-02     1.01450106E-24
  -2.00699996E-02     1.01427219E-24
  -2.00599991E-02     1.01385597E-24
  -2.00500004E-02     1.01327980E-24
  -2.00399999E-02     1.01258827E-24
  -2.00299993E-02     1.01183717E-24
  -2.00200006E-02     1.01108825E-24
  -2.00100001E-02     1.01040145E-24
  -1.99999996E-02     1.00982873E-24
  -1.99900009E-02     1.00940857E-24
  -1.99800003E-02     1.00916264E-24
  -1.99699998E-02     1.00909450E-24
  -1.99599992E-02     1.00919045E-24
  -1.99500006E-02     1.00942208E-24
  -1.99400000E-02     1.00975103E-24
  -1.99299995E-02     1.01013461E-24
  -1.99200008E-02     1.01053131E-24
  -1.99100003E-02     1.01090691E-24
  -1.98999997E-02     1.01123784E-24
  -1.98899992E-02     1.01151433E-24
  -1.98800005E-02     1.01173906E-24
  -1.98700000E-02     1.01192454E-24
  -1.98599994E-02     1.01209010E-24
  -1.98500007E-02     1.01225695E-24
  -1.98400002E-02     1.01244440E-24
  -1.98299997E-02     1.01266587E-24
  -1.98199991E-02     1.01292560E-24
  -1.98100004E-02     1.01321689E-24
  -1.97999999E-02     1.01352188E-24
  -1.97899994E-02     1.01381248E-24
  -1.97800007E-02     1.01405377E-24
  -1.97700001E-02     1.01420859E-24
  -1.97599996E-02     1.01424241E-24
  -1.97500009E-02     1.01412783E-24
  -1.97400004E-02     1.01384847E-24
  -1.97299998E-02     1.01340060E-24
  -1.97199993E-02     1.01279209E-24
  -1.97100006E-02     1.01204267E-24
  -1.97000001E-02     1.01118104E-24
  -1.96899995E-02     1.01024446E-24
  -1.96800008E-02     1.00927564E-24
  -1.96700003E-02     1.00831935E-24
  -1.96599998E-02     1.00741935E-24
  -1.96499992E-02     1.00661580E-24
  -1.96400005E-02     1.00594379E-24
  -1.96300000E-02     1.00543281E-24
  -1.96199995E-02     1.00510789E-24
  -1.96100008E-02     1.00499114E-24
  -1.96000002E-02     1.00510257E-24
  -1.95899997E-02     1.00545884E-24
  -1.95799991E-02     1.00607257E-24
  -1.95700005E-02     1.00694979E-24
  -1.95599999E-02     1.00808910E-24
  -1.95499994E-02     1.00948006E-24
  -1.95400007E-02     1.01110255E-24
  -1.95300002E-02     1.01292708E-24
  -1.95199996E-02     1.01491363E-24
  -1.95099991E-02     1.01701289E-24
  -1.95000004E-02     1.01916766E-24
  -1.94899999E-02     1.02131583E-24
  -1.94799993E-02     1.02339606E-24
  -1.94700006E-02     1.02535292E-24
  -1.94600001E-02     1.02714206E-24
  -1.94499996E-02     1.02873369E-24
  -1.94400009E-02     1.03011331E-24
  -1.94300003E-02     1.03128072E-24
  -1.94199998E-02     1.03224816E-24
  -1.94099993E-02     1.03303653E-24
  -1.94000006E-02     1.03367205E-24
  -1.93900000E-02     1.03418255E-24
  -1.93799995E-02     1.03459246E-24
  -1.93700008E-02     1.03491747E-24
  -1.93600003E-02     1.03516182E-24
  -1.93499997E-02     1.03531594E-24
  -1.93399992E-02     1.03535824E-24
  -1.93300005E-02     1.03525905E-24
  -1.93200000E-02     1.03498679E-24
  -1.93099994E-02     1.03451485E-24
  -1.93000007E-02     1.03382707E-24
  -1.92900002E-02     1.03292165E-24
  -1.92799997E-02     1.03181399E-24
  -1.92699991E-02     1.03053673E-24
  -1.92600004E-02     1.02913926E-24
  -1.92499999E-02     1.02768509E-24
  -1.92399994E-02     1.02624670E-24
  -1.92300007E-02     1.02489943E-24
  -1.92200001E-02     1.02371180E-24
  -1.92099996E-02     1.02273775E-24
  -1.92000009E-02     1.02201003E-24
  -1.91900004E-02     1.02153760E-24
  -1.91799998E-02     1.02130548E-24
  -1.91699993E-02     1.02127806E-24
  -1.91600006E-02     1.02140537E-24
  -1.91500001E-02     1.02162871E-24
  -1.91399995E-02     1.02188795E-24
  -1.91300008E-02     1.02212747E-24
  -1.91200003E-02     1.02230447E-24
  -1.91099998E-02     1.02239430E-24
  -1.90999992E-02     1.02239489E-24
  -1.90900005E-02     1.02232685E-24
  -1.90800000E-02     1.02223140E-24
  -1.90699995E-02     1.02216346E-24
  -1.90600008E-02     1.02218338E-24
  -1.90500002E-02     1.02234855E-24
  -1.90399997E-02     1.02270669E-24
  -1.90299992E-02     1.02328995E-24
  -1.90200005E-02     1.02411067E-24
  -1.90099999E-02     1.02516064E-24
  -1.89999994E-02     1.02640970E-24
  -1.89900007E-02     1.02780806E-24
  -1.89800002E-02     1.02929141E-24
  -1.89699996E-02     1.03078689E-24
  -1.89599991E-02     1.03222183E-24
  -1.89500004E-02     1.03353183E-24
  -1.89399999E-02     1.03466720E-24
  -1.89299993E-02     1.03559678E-24
  -1.89200006E-02     1.03630882E-24
  -1.89100001E-02     1.03680985E-24
  -1.88999996E-02     1.03712155E-24
  -1.88900009E-02     1.03727636E-24
  -1.88800003E-02     1.03731324E-24
  -1.88699998E-02     1.03727173E-24
  -1.88599993E-02     1.03718594E-24
  -1.88500006E-02     1.03707983E-24
  -1.88400000E-02     1.03696308E-24
  -1.88299995E-02     1.03683105E-24
  -1.88200008E-02     1.03666578E-24
  -1.88100003E-02     1.03644056E-24
  -1.87999997E-02     1.03612610E-24
  -1.87899992E-02     1.03569568E-24
  -1.87800005E-02     1.03513204E-24
  -1.87700000E-02     1.03443133E-24
  -1.87599994E-02     1.03360816E-24
  -1.87500007E-02     1.03269682E-24
  -1.87400002E-02     1.03175236E-24
  -1.87299997E-02     1.03084724E-24
  -1.87199991E-02     1.03006548E-24
  -1.87100004E-02     1.02949563E-24
  -1.86999999E-02     1.02922160E-24
  -1.86899994E-02     1.02931439E-24
  -1.86800007E-02     1.02982527E-24
  -1.86700001E-02     1.03077989E-24
  -1.86599996E-02     1.03217450E-24
  -1.86500009E-02     1.03397557E-24
  -1.86400004E-02     1.03612107E-24
  -1.86299998E-02     1.03852434E-24
  -1.86199993E-02     1.04108153E-24
  -1.86100006E-02     1.04368004E-24
  -1.86000001E-02     1.04620843E-24
  -1.85899995E-02     1.04856476E-24
  -1.85800008E-02     1.05066422E-24
  -1.85700003E-02     1.05244330E-24
  -1.85599998E-02     1.05386226E-24
  -1.85499992E-02     1.05490563E-24
  -1.85400005E-02     1.05558138E-24
  -1.85300000E-02     1.05591813E-24
  -1.85199995E-02     1.05596023E-24
  -1.85100008E-02     1.05576332E-24
  -1.85000002E-02     1.05538644E-24
  -1.84899997E-02     1.05488571E-24
  -1.84799992E-02     1.05430954E-24
  -1.84700005E-02     1.05369680E-24
  -1.84599999E-02     1.05307507E-24
  -1.84499994E-02     1.05246213E-24
  -1.84400007E-02     1.05186674E-24
  -1.84300002E-02     1.05129008E-24
  -1.84199996E-02     1.05072634E-24
  -1.84099991E-02     1.05016585E-24
  -1.84000004E-02     1.04959699E-24
  -1.83899999E-02     1.04901007E-24
  -1.83799993E-02     1.04839979E-24
  -1.83700006E-02     1.04776821E-24
  -1.83600001E-02     1.04712341E-24
  -1.83499996E-02     1.04647911E-24
  -1.83400009E-02     1.04585207E-24
  -1.83300003E-02     1.04526170E-24
  -1.83199998E-02     1.04472893E-24
  -1.83099993E-02     1.04427602E-24
  -1.83000006E-02     1.04392557E-24
  -1.82900000E-02     1.04369917E-24
  -1.82799995E-02     1.04361348E-24
  -1.82700008E-02     1.04367875E-24
  -1.82600003E-02     1.04389589E-24
  -1.82499997E-02     1.04425719E-24
  -1.82399992E-02     1.04474677E-24
  -1.82300005E-02     1.04534315E-24
  -1.82200000E-02     1.04601911E-24
  -1.82099994E-02     1.04674289E-24
  -1.82000007E-02     1.04747801E-24
  -1.81900002E-02     1.04818424E-24
  -1.81799997E-02     1.04882055E-24
  -1.81699991E-02     1.04934820E-24
  -1.81600004E-02     1.04973474E-24
  -1.81499999E-02     1.04995523E-24
  -1.81399994E-02     1.04999270E-24
  -1.81300007E-02     1.04983779E-24
  -1.81200001E-02     1.04948664E-24
  -1.81099996E-02     1.04894095E-24
  -1.81000009E-02     1.04820711E-24
  -1.80900004E-02     1.04729825E-24
  -1.80799998E-02     1.04623378E-24
  -1.80699993E-02     1.04503846E-24
  -1.80600006E-02     1.04374088E-24
  -1.80500001E-02     1.04237220E-24
  -1.80399995E-02     1.04096537E-24
  -1.80300009E-02     1.03955518E-24
  -1.80200003E-02     1.03817892E-24
  -1.80099998E-02     1.03687769E-24
  -1.79999992E-02     1.03569400E-24
  -1.79900005E-02     1.03466996E-24
  -1.79800000E-02     1.03384294E-24
  -1.79699995E-02     1.03324163E-24
  -1.79600008E-02     1.03288349E-24
  -1.79500002E-02     1.03277354E-24
  -1.79399997E-02     1.03290311E-24
  -1.79299992E-02     1.03324992E-24
  -1.79200005E-02     1.03377628E-24
  -1.79099999E-02     1.03442966E-24
  -1.78999994E-02     1.03514328E-24
  -1.78900007E-02     1.03583945E-24
  -1.78800002E-02     1.03643465E-24
  -1.78699996E-02     1.03684525E-24
  -1.78599991E-02     1.03699395E-24
  -1.78500004E-02     1.03681547E-24
  -1.78399999E-02     1.03625932E-24
  -1.78299993E-02     1.03529395E-24
  -1.78200006E-02     1.03390763E-24
  -1.78100001E-02     1.03211050E-24
  -1.77999996E-02     1.02993542E-24
  -1.77900009E-02     1.02743581E-24
  -1.77800003E-02     1.02468377E-24
  -1.77699998E-02     1.02176400E-24
  -1.77599993E-02     1.01876830E-24
  -1.77500006E-02     1.01578877E-24
  -1.77400000E-02     1.01291239E-24
  -1.77299995E-02     1.01021666E-24
  -1.77200008E-02     1.00776695E-24
  -1.77100003E-02     1.00561336E-24
  -1.76999997E-02     1.00379020E-24
  -1.76899992E-02     1.00231493E-24
  -1.76800005E-02     1.00118814E-24
  -1.76700000E-02     1.00039573E-24
  -1.76599994E-02     9.99911667E-25
  -1.76500008E-02     9.99700745E-25
  -1.76400002E-02     9.99722143E-25
  -1.76299997E-02     9.99932375E-25
  -1.76199991E-02     1.00028716E-24
  -1.76100004E-02     1.00074372E-24
  -1.75999999E-02     1.00126092E-24
  -1.75899994E-02     1.00180000E-24
  -1.75800007E-02     1.00232529E-24
  -1.75700001E-02     1.00280422E-24
  -1.75599996E-02     1.00320802E-24
  -1.75500009E-02     1.00351213E-24
  -1.75400004E-02     1.00369652E-24
  -1.75299998E-02     1.00374681E-24
  -1.75199993E-02     1.00365373E-24
  -1.75100006E-02     1.00341322E-24
  -1.75000001E-02     1.00302609E-24
  -1.74899995E-02     1.00249706E-24
  -1.74800009E-02     1.00183491E-24
  -1.74700003E-02     1.00105078E-24
  -1.74599998E-02     1.00015681E-24
  -1.74499992E-02     9.99162742E-25
  -1.74400005E-02     9.98075002E-25
  -1.74300000E-02     9.96893683E-25
  -1.74199995E-02     9.95612079E-25
  -1.74100008E-02     9.94217275E-25
  -1.74000002E-02     9.92693097E-25
  -1.73899997E-02     9.91023374E-25
  -1.73799992E-02     9.89196274E-25
  -1.73700005E-02     9.87207950E-25
  -1.73599999E-02     9.85065699E-25
  -1.73499994E-02     9.82790427E-25
  -1.73400007E-02     9.80418618E-25
  -1.73300002E-02     9.78001647E-25
  -1.73199996E-02     9.75605877E-25
  -1.73099991E-02     9.73307136E-25
  -1.73000004E-02     9.71185199E-25
  -1.72899999E-02     9.69315105E-25
  -1.72799993E-02     9.67758781E-25
  -1.72700007E-02     9.66556459E-25
  -1.72600001E-02     9.65722337E-25
  -1.72499996E-02     9.65242512E-25
  -1.72400009E-02     9.65075668E-25
  -1.72300003E-02     9.65156724E-25
  -1.72199998E-02     9.65401862E-25
  -1.72099993E-02     9.65715434E-25
  -1.72000006E-02     9.65997847E-25
  -1.71900000E-02     9.66155422E-25
  -1.71799995E-02     9.66110358E-25
  -1.71700008E-02     9.65810295E-25
  -1.71600003E-02     9.65232651E-25
  -1.71499997E-02     9.64386105E-25
  -1.71399992E-02     9.63307042E-25
  -1.71300005E-02     9.62052852E-25
  -1.71200000E-02     9.60693743E-25
  -1.71099994E-02     9.59304559E-25
  -1.71000008E-02     9.57957579E-25
  -1.70900002E-02     9.56715320E-25
  -1.70799997E-02     9.55624917E-25
  -1.70699991E-02     9.54712008E-25
  -1.70600004E-02     9.53978959E-25
  -1.70499999E-02     9.53404570E-25
  -1.70399994E-02     9.52949791E-25
  -1.70300007E-02     9.52565320E-25
  -1.70200001E-02     9.52201951E-25
  -1.70099996E-02     9.51820044E-25
  -1.70000009E-02     9.51395933E-25
  -1.69900004E-02     9.50925476E-25
  -1.69799998E-02     9.50425141E-25
  -1.69699993E-02     9.49931412E-25
  -1.69600006E-02     9.49498130E-25
  -1.69500001E-02     9.49191954E-25
  -1.69399995E-02     9.49086444E-25
  -1.69300009E-02     9.49251611E-25
  -1.69200003E-02     9.49742776E-25
  -1.69099998E-02     9.50590506E-25
  -1.68999992E-02     9.51792434E-25
  -1.68900006E-02     9.53310695E-25
  -1.68800000E-02     9.55074194E-25
  -1.68699995E-02     9.56984420E-25
  -1.68600008E-02     9.58924032E-25
  -1.68500002E-02     9.60766515E-25
  -1.68399997E-02     9.62385850E-25
  -1.68299992E-02     9.63667749E-25
  -1.68200005E-02     9.64520803E-25
  -1.68099999E-02     9.64886144E-25
  -1.67999994E-02     9.64745727E-25
  -1.67900007E-02     9.64124302E-25
  -1.67800002E-02     9.63086062E-25
  -1.67699996E-02     9.61725376E-25
  -1.67599991E-02     9.60154557E-25
  -1.67500004E-02     9.58489666E-25
  -1.67399999E-02     9.56838383E-25
  -1.67299993E-02     9.55289651E-25
  -1.67200007E-02     9.53906680E-25
  -1.67100001E-02     9.52721515E-25
  -1.66999996E-02     9.51733072E-25
  -1.66900009E-02     9.50909403E-25
  -1.66800003E-02     9.50192821E-25
  -1.66699998E-02     9.49511640E-25
  -1.66599993E-02     9.48793875E-25
  -1.66500006E-02     9.47980559E-25
  -1.66400000E-02     9.47038561E-25
  -1.66299995E-02     9.45965611E-25
  -1.66200008E-02     9.44792477E-25
  -1.66100003E-02     9.43578420E-25
  -1.65999997E-02     9.42404595E-25
  -1.65899992E-02     9.41364481E-25
  -1.65800005E-02     9.40553039E-25
  -1.65700000E-02     9.40054972E-25
  -1.65599994E-02     9.39932699E-25
  -1.65500008E-02     9.40214717E-25
  -1.65400002E-02     9.40889489E-25
  -1.65299997E-02     9.41901893E-25
  -1.65199991E-02     9.43158647E-25
  -1.65100005E-02     9.44537280E-25
  -1.64999999E-02     9.45900037E-25
  -1.64899994E-02     9.47108178E-25
  -1.64800007E-02     9.48034991E-25
  -1.64700001E-02     9.48577135E-25
  -1.64599996E-02     9.48662825E-25
  -1.64500009E-02     9.48257548E-25
  -1.64400004E-02     9.47366628E-25
  -1.64299998E-02     9.46033355E-25
  -1.64199993E-02     9.44333458E-25
  -1.64100006E-02     9.42365842E-25
  -1.64000001E-02     9.40241144E-25
  -1.63899995E-02     9.38069015E-25
  -1.63800009E-02     9.35948163E-25
  -1.63700003E-02     9.33959148E-25
  -1.63599998E-02     9.32159954E-25
  -1.63499992E-02     9.30586078E-25
  -1.63400006E-02     9.29251029E-25
  -1.63300000E-02     9.28149582E-25
  -1.63199995E-02     9.27263297E-25
  -1.63100008E-02     9.26565550E-25
  -1.63000003E-02     9.26028927E-25
  -1.62899997E-02     9.25631637E-25
  -1.62799992E-02     9.25363227E-25
  -1.62700005E-02     9.25227543E-25
  -1.62599999E-02     9.25243419E-25
  -1.62499994E-02     9.25442212E-25
  -1.62400007E-02     9.25864252E-25
  -1.62300002E-02     9.26553618E-25
  -1.62199996E-02     9.27551428E-25
  -1.62099991E-02     9.28889928E-25
  -1.62000004E-02     9.30585683E-25
  -1.61899999E-02     9.32633369E-25
  -1.61799993E-02     9.35001431E-25
  -1.61700007E-02     9.37630113E-25
  -1.61600001E-02     9.40432837E-25
  -1.61499996E-02     9.43300445E-25
  -1.61400009E-02     9.46109085E-25
  -1.61300004E-02     9.48728695E-25
  -1.61199998E-02     9.51034634E-25
  -1.61099993E-02     9.52917744E-25
  -1.61000006E-02     9.54295292E-25
  -1.60900000E-02     9.55120244E-25
  -1.60799995E-02     9.55386484E-25
  -1.60700008E-02     9.55130992E-25
  -1.60600003E-02     9.54431075E-25
  -1.60499997E-02     9.53395498E-25
  -1.60399992E-02     9.52153633E-25
  -1.60300005E-02     9.50841363E-25
  -1.60200000E-02     9.49587666E-25
  -1.60099994E-02     9.48501109E-25
  -1.60000008E-02     9.47659690E-25
  -1.59900002E-02     9.47104431E-25
  -1.59799997E-02     9.46835725E-25
  -1.59699991E-02     9.46816201E-25
  -1.59600005E-02     9.46978213E-25
  -1.59499999E-02     9.47235973E-25
  -1.59399994E-02     9.47500242E-25
  -1.59300007E-02     9.47692822E-25
  -1.59200002E-02     9.47759777E-25
  -1.59099996E-02     9.47680102E-25
  -1.59000009E-02     9.47468983E-25
  -1.58900004E-02     9.47176809E-25
  -1.58799998E-02     9.46883845E-25
  -1.58699993E-02     9.46689588E-25
  -1.58600006E-02     9.46700041E-25
  -1.58500001E-02     9.47013021E-25
  -1.58399995E-02     9.47702979E-25
  -1.58300009E-02     9.48807680E-25
  -1.58200003E-02     9.50318940E-25
  -1.58099998E-02     9.52180356E-25
  -1.57999992E-02     9.54290165E-25
  -1.57900006E-02     9.56510808E-25
  -1.57800000E-02     9.58682148E-25
  -1.57699995E-02     9.60637339E-25
  -1.57600008E-02     9.62219203E-25
  -1.57500003E-02     9.63295998E-25
  -1.57399997E-02     9.63775428E-25
  -1.57299992E-02     9.63614402E-25
  -1.57200005E-02     9.62824949E-25
  -1.57099999E-02     9.61474025E-25
  -1.56999994E-02     9.59676211E-25
  -1.56900007E-02     9.57581588E-25
  -1.56800002E-02     9.55359268E-25
  -1.56699996E-02     9.53180435E-25
  -1.56599991E-02     9.51201577E-25
  -1.56500004E-02     9.49550787E-25
  -1.56399999E-02     9.48318093E-25
  -1.56299993E-02     9.47548954E-25
  -1.56199997E-02     9.47243073E-25
  -1.56100001E-02     9.47358049E-25
  -1.55999996E-02     9.47818054E-25
  -1.55900000E-02     9.48526550E-25
  -1.55800004E-02     9.49381675E-25
  -1.55699998E-02     9.50291429E-25
  -1.55600002E-02     9.51185898E-25
  -1.55499997E-02     9.52025345E-25
  -1.55400001E-02     9.52802274E-25
  -1.55300004E-02     9.53539958E-25
  -1.55199999E-02     9.54285333E-25
  -1.55100003E-02     9.55099043E-25
  -1.54999997E-02     9.56044098E-25
  -1.54900001E-02     9.57171874E-25
  -1.54799996E-02     9.58510275E-25
  -1.54700000E-02     9.60053385E-25
  -1.54600004E-02     9.61756536E-25
  -1.54499998E-02     9.63536502E-25
  -1.54400002E-02     9.65280180E-25
  -1.54299997E-02     9.66857113E-25
  -1.54200001E-02     9.68135955E-25
  -1.54100005E-02     9.69001237E-25
  -1.53999999E-02     9.69368156E-25
  -1.53900003E-02     9.69195297E-25
  -1.53799998E-02     9.68490943E-25
  -1.53700002E-02     9.67316033E-25
  -1.53599996E-02     9.65779332E-25
  -1.53500000E-02     9.64028061E-25
  -1.53400004E-02     9.62232120E-25
  -1.53299998E-02     9.60564961E-25
  -1.53200002E-02     9.59182877E-25
  -1.53099997E-02     9.58206859E-25
  -1.53000001E-02     9.57710468E-25
  -1.52899995E-02     9.57713328E-25
  -1.52799999E-02     9.58183193E-25
  -1.52700003E-02     9.59043643E-25
  -1.52599998E-02     9.60186703E-25
  -1.52500002E-02     9.61488520E-25
  -1.52399996E-02     9.62826922E-25
  -1.52300000E-02     9.64097185E-25
  -1.52200004E-02     9.65226834E-25
  -1.52099999E-02     9.66184215E-25
  -1.52000003E-02     9.66981359E-25
  -1.51899997E-02     9.67669936E-25
  -1.51800001E-02     9.68329621E-25
  -1.51699996E-02     9.69053401E-25
  -1.51600000E-02     9.69931008E-25
  -1.51500003E-02     9.71032061E-25
  -1.51399998E-02     9.72394424E-25
  -1.51300002E-02     9.74016026E-25
  -1.51199996E-02     9.75853086E-25
  -1.51100000E-02     9.77821984E-25
  -1.51000004E-02     9.79807646E-25
  -1.50899999E-02     9.81675274E-25
  -1.50800003E-02     9.83285437E-25
  -1.50699997E-02     9.84510440E-25
  -1.50600001E-02     9.85248814E-25
  -1.50499996E-02     9.85437647E-25
  -1.50400000E-02     9.85058698E-25
  -1.50300004E-02     9.84138886E-25
  -1.50199998E-02     9.82746152E-25
  -1.50100002E-02     9.80980879E-25
  -1.49999997E-02     9.78965635E-25
  -1.49900001E-02     9.76832259E-25
  -1.49800004E-02     9.74710717E-25
  -1.49699999E-02     9.72718054E-25
  -1.49600003E-02     9.70949329E-25
  -1.49499997E-02     9.69471300E-25
  -1.49400001E-02     9.68319464E-25
  -1.49299996E-02     9.67499147E-25
  -1.49200000E-02     9.66989346E-25
  -1.49100004E-02     9.66748842E-25
  -1.48999998E-02     9.66723106E-25
  -1.48900002E-02     9.66851690E-25
  -1.48799997E-02     9.67073951E-25
  -1.48700001E-02     9.67334867E-25
  -1.48600005E-02     9.67588880E-25
  -1.48499999E-02     9.67802267E-25
  -1.48400003E-02     9.67954517E-25
  -1.48299998E-02     9.68039123E-25
  -1.48200002E-02     9.68062591E-25
  -1.48099996E-02     9.68041194E-25
  -1.48000000E-02     9.67998398E-25
  -1.47900004E-02     9.67961321E-25
  -1.47799999E-02     9.67956687E-25
  -1.47700002E-02     9.68006681E-25
  -1.47599997E-02     9.68125306E-25
  -1.47500001E-02     9.68315520E-25
  -1.47399995E-02     9.68568251E-25
  -1.47299999E-02     9.68862200E-25
  -1.47200003E-02     9.69164926E-25
  -1.47099998E-02     9.69436195E-25
  -1.47000002E-02     9.69630945E-25
  -1.46899996E-02     9.69704408E-25
  -1.46800000E-02     9.69617042E-25
  -1.46700004E-02     9.69340546E-25
  -1.46599999E-02     9.68862299E-25
  -1.46500003E-02     9.68188908E-25
  -1.46399997E-02     9.67348574E-25
  -1.46300001E-02     9.66388037E-25
  -1.46199996E-02     9.65368829E-25
  -1.46100000E-02     9.64360763E-25
  -1.46000003E-02     9.63434344E-25
  -1.45899998E-02     9.62654457E-25
  -1.45800002E-02     9.62074447E-25
  -1.45699997E-02     9.61731687E-25
  -1.45600000E-02     9.61643532E-25
  -1.45500004E-02     9.61805445E-25
  -1.45399999E-02     9.62190212E-25
  -1.45300003E-02     9.62750205E-25
  -1.45199997E-02     9.63423103E-25
  -1.45100001E-02     9.64138896E-25
  -1.44999996E-02     9.64829346E-25
  -1.44900000E-02     9.65434600E-25
  -1.44800004E-02     9.65909100E-25
  -1.44699998E-02     9.66222869E-25
  -1.44600002E-02     9.66362103E-25
  -1.44499997E-02     9.66328774E-25
  -1.44400001E-02     9.66138362E-25
  -1.44300004E-02     9.65817592E-25
  -1.44199999E-02     9.65400186E-25
  -1.44100003E-02     9.64920953E-25
  -1.43999998E-02     9.64408095E-25
  -1.43900001E-02     9.63876501E-25
  -1.43799996E-02     9.63323214E-25
  -1.43700000E-02     9.62727821E-25
  -1.43600004E-02     9.62056697E-25
  -1.43499998E-02     9.61270006E-25
  -1.43400002E-02     9.60329289E-25
  -1.43299997E-02     9.59204571E-25
  -1.43200001E-02     9.57880271E-25
  -1.43100005E-02     9.56360727E-25
  -1.42999999E-02     9.54674537E-25
  -1.42900003E-02     9.52878301E-25
  -1.42799998E-02     9.51056131E-25
  -1.42700002E-02     9.49316002E-25
  -1.42599996E-02     9.47779104E-25
  -1.42500000E-02     9.46566526E-25
  -1.42400004E-02     9.45782990E-25
  -1.42299999E-02     9.45503733E-25
  -1.42200002E-02     9.45764945E-25
  -1.42099997E-02     9.46559131E-25
  -1.42000001E-02     9.47836001E-25
  -1.41899996E-02     9.49505822E-25
  -1.41799999E-02     9.51447800E-25
  -1.41700003E-02     9.53519448E-25
  -1.41599998E-02     9.55570880E-25
  -1.41500002E-02     9.57461090E-25
  -1.41399996E-02     9.59073916E-25
  -1.41300000E-02     9.60332642E-25
  -1.41200004E-02     9.61206305E-25
  -1.41099999E-02     9.61710190E-25
  -1.41000003E-02     9.61896953E-25
  -1.40899997E-02     9.61844395E-25
  -1.40800001E-02     9.61640771E-25
  -1.40699996E-02     9.61370191E-25
  -1.40600000E-02     9.61101781E-25
  -1.40500003E-02     9.60878830E-25
  -1.40399998E-02     9.60712873E-25
  -1.40300002E-02     9.60581429E-25
  -1.40199997E-02     9.60431151E-25
  -1.40100000E-02     9.60186407E-25
  -1.40000004E-02     9.59764761E-25
  -1.39899999E-02     9.59094623E-25
  -1.39800003E-02     9.58131326E-25
  -1.39699997E-02     9.56869247E-25
  -1.39600001E-02     9.55345956E-25
  -1.39499996E-02     9.53639256E-25
  -1.39400000E-02     9.51858698E-25
  -1.39300004E-02     9.50133065E-25
  -1.39199998E-02     9.48596758E-25
  -1.39100002E-02     9.47374813E-25