  -2.19999999E-02     1.00000002E-24
  -2.19899993E-02     1.00000002E-24
  -2.19800007E-02     1.00000002E-24
  -2.19700001E-02     1.00000002E-24
  -2.19599996E-02     1.00000002E-24
  -2.19500009E-02     1.00000012E-24
  -2.19400004E-02     1.00000022E-24
  -2.19299998E-02     1.00000022E-24
  -2.19199993E-02     1.00000022E-24
  -2.19100006E-02     1.00000022E-24
  -2.19000001E-02     1.00000022E-24
  -2.18899995E-02     1.00000012E-24
  -2.18800008E-02     1.00000002E-24
  -2.18700003E-02     9.99999921E-25
  -2.18599997E-02     9.99999921E-25
  -2.18499992E-02     9.99999921E-25
  -2.18400005E-02     9.99999921E-25
  -2.18300000E-02     1.00000002E-24
  -2.18199994E-02     1.00000012E-24
  -2.18100008E-02     1.00000022E-24
  -2.18000002E-02     1.00000032E-24
  -2.17899997E-02     1.00000032E-24
  -2.17799991E-02     1.00000032E-24
  -2.17700005E-02     1.00000032E-24
  -2.17599999E-02     1.00000022E-24
  -2.17499994E-02     1.00000022E-24
  -2.17400007E-02     1.00000012E-24
  -2.17300002E-02     1.00000022E-24
  -2.17199996E-02     1.00000012E-24
  -2.17099991E-02     1.00000012E-24
  -2.17000004E-02     1.00000012E-24
  -2.16899998E-02     1.00000022E-24
  -2.16799993E-02     1.00000012E-24
  -2.16700006E-02     1.00000012E-24
  -2.16600001E-02     1.00000012E-24
  -2.16499995E-02     1.00000012E-24
  -2.16400009E-02     1.00000012E-24
  -2.16300003E-02     1.00000022E-24
  -2.16199998E-02     1.00000032E-24
  -2.16099992E-02     1.00000041E-24
  -2.16000006E-02     1.00000041E-24
  -2.15900000E-02     1.00000041E-24
  -2.15799995E-02     1.00000032E-24
  -2.15700008E-02     1.00000032E-24
  -2.15600003E-02     1.00000022E-24
  -2.15499997E-02     1.00000012E-24
  -2.15399992E-02     1.00000002E-24
  -2.15300005E-02     9.99999921E-25
  -2.15200000E-02     9.99999724E-25
  -2.15099994E-02     9.99999625E-25
  -2.15000007E-02     9.99999428E-25
  -2.14900002E-02     9.99999527E-25
  -2.14799996E-02     9.99999724E-25
  -2.14699991E-02     9.99999822E-25
  -2.14600004E-02     1.00000002E-24
  -2.14499999E-02     1.00000022E-24
  -2.14399993E-02     1.00000041E-24
  -2.14300007E-02     1.00000061E-24
  -2.14200001E-02     1.00000071E-24
  -2.14099996E-02     1.00000081E-24
  -2.14000009E-02     1.00000081E-24
  -2.13900004E-02     1.00000071E-24
  -2.13799998E-02     1.00000061E-24
  -2.13699993E-02     1.00000041E-24
  -2.13600006E-02     1.00000012E-24
  -2.13500001E-02     1.00000002E-24
  -2.13399995E-02     9.99999921E-25
  -2.13300008E-02     1.00000002E-24
  -2.13200003E-02     1.00000002E-24
  -2.13099997E-02     1.00000012E-24
  -2.12999992E-02     1.00000022E-24
  -2.12900005E-02     1.00000012E-24
  -2.12800000E-02     1.00000012E-24
  -2.12699994E-02     1.00000012E-24
  -2.12600008E-02     1.00000012E-24
  -2.12500002E-02     1.00000002E-24
  -2.12399997E-02     9.99999921E-25
  -2.12299991E-02     9.99999822E-25
  -2.12200005E-02     9.99999625E-25
  -2.12099999E-02     9.99999527E-25
  -2.11999994E-02     9.99999527E-25
  -2.11900007E-02     9.99999527E-25
  -2.11800002E-02     9.99999822E-25
  -2.11699996E-02     1.00000002E-24
  -2.11599991E-02     1.00000022E-24
  -2.11500004E-02     1.00000032E-24
  -2.11399999E-02     1.00000041E-24
  -2.11299993E-02     1.00000051E-24
  -2.11200006E-02     1.00000071E-24
  -2.11100001E-02     1.00000081E-24
  -2.10999995E-02     1.00000110E-24
  -2.10900009E-02     1.00000130E-24
  -2.10800003E-02     1.00000130E-24
  -2.10699998E-02     1.00000110E-24
  -2.10599992E-02     1.00000071E-24
  -2.10500006E-02     9.99999921E-25
  -2.10400000E-02     9.99998935E-25
  -2.10299995E-02     9.99997554E-25
  -2.10200008E-02     9.99995977E-25
  -2.10100003E-02     9.99994498E-25
  -2.09999997E-02     9.99993314E-25
  -2.09899992E-02     9.99992723E-25
  -2.09800005E-02     9.99992920E-25
  -2.09700000E-02     9.99994300E-25
  -2.09599994E-02     9.99996568E-25
  -2.09500007E-02     9.99999724E-25
  -2.09400002E-02     1.00000337E-24
  -2.09299996E-02     1.00000722E-24
  -2.09199991E-02     1.00001087E-24
  -2.09100004E-02     1.00001402E-24
  -2.08999999E-02     1.00001639E-24
  -2.08899993E-02     1.00001797E-24
  -2.08800007E-02     1.00001836E-24
  -2.08700001E-02     1.00001767E-24
  -2.08599996E-02     1.00001580E-24
  -2.08500009E-02     1.00001274E-24
  -2.08400004E-02     1.00000840E-24
  -2.08299998E-02     1.00000298E-24
  -2.08199993E-02     9.99996470E-25
  -2.08100006E-02     9.99989074E-25
  -2.08000001E-02     9.99981087E-25
  -2.07899995E-02     9.99973198E-25
  -2.07800008E-02     9.99965704E-25
  -2.07700003E-02     9.99959590E-25
  -2.07599998E-02     9.99955350E-25
  -2.07499992E-02     9.99953575E-25
  -2.07400005E-02     9.99954759E-25
  -2.07300000E-02     9.99958604E-25
  -2.07199994E-02     9.99964915E-25
  -2.07100008E-02     9.99973395E-25
  -2.07000002E-02     9.99983453E-25
  -2.06899997E-02     9.99994596E-25
  -2.06799991E-02     1.00000663E-24
  -2.06700005E-02     1.00001954E-24
  -2.06599999E-02     1.00003345E-24
  -2.06499994E-02     1.00004853E-24
  -2.06400007E-02     1.00006500E-24
  -2.06300002E-02     1.00008265E-24
  -2.06199996E-02     1.00010080E-24
  -2.06099991E-02     1.00011825E-24
  -2.06000004E-02     1.00013294E-24
  -2.05899999E-02     1.00014270E-24
  -2.05799993E-02     1.00014458E-24
  -2.05700006E-02     1.00013630E-24
  -2.05600001E-02     1.00011549E-24
  -2.05499995E-02     1.00008078E-24
  -2.05400009E-02     1.00003187E-24
  -2.05300003E-02     9.99969944E-25
  -2.05199998E-02     9.99897172E-25
  -2.05099992E-02     9.99817102E-25
  -2.05000006E-02     9.99733878E-25
  -2.04900000E-02     9.99652230E-25
  -2.04799995E-02     9.99576894E-25
  -2.04700008E-02     9.99512602E-25
  -2.04600003E-02     9.99463397E-25
  -2.04499997E-02     9.99432829E-25
  -2.04399992E-02     9.99423658E-25
  -2.04300005E-02     9.99437858E-25
  -2.04200000E-02     9.99476808E-25
  -2.04099994E-02     9.99541396E-25
  -2.04000007E-02     9.99631819E-25
  -2.03900002E-02     9.99747880E-25
  -2.03799997E-02     9.99888494E-25
  -2.03699991E-02     1.00005159E-24
  -2.03600004E-02     1.00023392E-24
  -2.03499999E-02     1.00043015E-24
  -2.03399993E-02     1.00063397E-24
  -2.03300007E-02     1.00083631E-24
  -2.03200001E-02     1.00102741E-24
  -2.03099996E-02     1.00119554E-24
  -2.03000009E-02     1.00132856E-24
  -2.02900004E-02     1.00141336E-24
  -2.02799998E-02     1.00143673E-24
  -2.02699993E-02     1.00138585E-24
  -2.02600006E-02     1.00124849E-24
  -2.02500001E-02     1.00101321E-24
  -2.02399995E-02     1.00066957E-24
  -2.02300008E-02     1.00020818E-24
  -2.02200003E-02     9.99620676E-25
  -2.02099998E-02     9.98899854E-25
  -2.01999992E-02     9.98039700E-25
  -2.01900005E-02     9.97035776E-25
  -2.01800000E-02     9.95885913E-25
  -2.01699995E-02     9.94590011E-25
  -2.01600008E-02     9.93150735E-25
  -2.01500002E-02     9.91573506E-25
  -2.01399997E-02     9.89866707E-25
  -2.01299991E-02     9.88041381E-25
  -2.01200005E-02     9.86110546E-25
  -2.01099999E-02     9.84089385E-25
  -2.00999994E-02     9.81993974E-25
  -2.00900007E-02     9.79840679E-25
  -2.00800002E-02     9.77646068E-25
  -2.00699996E-02     9.75426213E-25
  -2.00599991E-02     9.73196893E-25
  -2.00500004E-02     9.70973192E-25
  -2.00399999E-02     9.68770890E-25
  -2.00299993E-02     9.66605368E-25
  -2.00200006E-02     9.64493094E-25
  -2.00100001E-02     9.62450733E-25
  -1.99999996E-02     9.60495838E-25
  -1.99900009E-02     9.58645367E-25
  -1.99800003E-02     9.56915494E-25
  -1.99699998E-02     9.55320811E-25
  -1.99599992E-02     9.53873252E-25
  -1.99500006E-02     9.52581985E-25
  -1.99400000E-02     9.51453224E-25
  -1.99299995E-02     9.50490024E-25
  -1.99200008E-02     9.49692782E-25
  -1.99100003E-02     9.49060411E-25
  -1.98999997E-02     9.48590447E-25
  -1.98899992E-02     9.48280622E-25
  -1.98800005E-02     9.48128668E-25
  -1.98700000E-02     9.48133007E-25
  -1.98599994E-02     9.48292455E-25
  -1.98500007E-02     9.48605929E-25
  -1.98400002E-02     9.49071160E-25
  -1.98299997E-02     9.49685189E-25
  -1.98199991E-02     9.50442693E-25
  -1.98100004E-02     9.51336669E-25
  -1.97999999E-02     9.52358244E-25
  -1.97899994E-02     9.53496275E-25
  -1.97800007E-02     9.54739026E-25
  -1.97700001E-02     9.56073385E-25
  -1.97599996E-02     9.57486037E-25
  -1.97500009E-02     9.58963574E-25
  -1.97400004E-02     9.60492781E-25
  -1.97299998E-02     9.62060050E-25
  -1.97199993E-02     9.63651873E-25
  -1.97100006E-02     9.65253852E-25
  -1.97000001E-02     9.66851098E-25
  -1.96899995E-02     9.68427242E-25
  -1.96800008E-02     9.69965127E-25
  -1.96700003E-02     9.71446509E-25
  -1.96599998E-02     9.72852851E-25
  -1.96499992E-02     9.74165318E-25
  -1.96400005E-02     9.75365668E-25
  -1.96300000E-02     9.76435660E-25
  -1.96199995E-02     9.77358331E-25
  -1.96100008E-02     9.78117511E-25
  -1.96000002E-02     9.78697817E-25
  -1.95899997E-02     9.79085246E-25
  -1.95799991E-02     9.79267374E-25
  -1.95700005E-02     9.79233158E-25
  -1.95599999E-02     9.78973622E-25
  -1.95499994E-02     9.78482162E-25
  -1.95400007E-02     9.77755424E-25
  -1.95300002E-02     9.76793408E-25
  -1.95199996E-02     9.75600157E-25
  -1.95099991E-02     9.74183659E-25
  -1.95000004E-02     9.72556239E-25
  -1.94899999E-02     9.70733773E-25
  -1.94799993E-02     9.68735194E-25
  -1.94700006E-02     9.66581702E-25
  -1.94600001E-02     9.64295682E-25
  -1.94499996E-02     9.61900109E-25
  -1.94400009E-02     9.59417465E-25
  -1.94300003E-02     9.56869148E-25
  -1.94199998E-02     9.54275472E-25
  -1.94099993E-02     9.51655073E-25
  -1.94000006E-02     9.49024913E-25
  -1.93900000E-02     9.46400668E-25
  -1.93799995E-02     9.43796934E-25
  -1.93700008E-02     9.41227121E-25
  -1.93600003E-02     9.38704147E-25
  -1.93499997E-02     9.36239942E-25
  -1.93399992E-02     9.33845454E-25
  -1.93300005E-02     9.31530246E-25
  -1.93200000E-02     9.29302305E-25
  -1.93099994E-02     9.27167450E-25
  -1.93000007E-02     9.25129330E-25
  -1.92900002E-02     9.23189225E-25
  -1.92799997E-02     9.21346446E-25
  -1.92699991E-02     9.19598724E-25
  -1.92600004E-02     9.17942708E-25
  -1.92499999E-02     9.16375143E-25
  -1.92399994E-02     9.14893268E-25
  -1.92300007E-02     9.13496294E-25
  -1.92200001E-02     9.12185108E-25
  -1.92099996E-02     9.10963360E-25
  -1.92000009E-02     9.09836867E-25
  -1.91900004E-02     9.08813024E-25
  -1.91799998E-02     9.07900509E-25
  -1.91699993E-02     9.07107802E-25
  -1.91600006E-02     9.06442497E-25
  -1.91500001E-02     9.05910804E-25
  -1.91399995E-02     9.05517261E-25
  -1.91300008E-02     9.05264333E-25
  -1.91200003E-02     9.05153301E-25
  -1.91099998E-02     9.05184757E-25
  -1.90999992E-02     9.05359095E-25
  -1.90900005E-02     9.05677104E-25
  -1.90800000E-02     9.06140462E-25
  -1.90699995E-02     9.06751040E-25
  -1.90600008E-02     9.07511206E-25
  -1.90500002E-02     9.08421946E-25
  -1.90399997E-02     9.09482569E-25
  -1.90299992E-02     9.10689329E-25
  -1.90200005E-02     9.12035126E-25
  -1.90099999E-02     9.13509409E-25
  -1.89999994E-02     9.15097879E-25
  -1.89900007E-02     9.16783970E-25
  -1.89800002E-02     9.18549638E-25
  -1.89699996E-02     9.20376443E-25
  -1.89599991E-02     9.22245846E-25
  -1.89500004E-02     9.24140197E-25
  -1.89399999E-02     9.26042436E-25
  -1.89299993E-02     9.27935604E-25
  -1.89200006E-02     9.29802837E-25
  -1.89100001E-02     9.31626487E-25
  -1.88999996E-02     9.33388703E-25
  -1.88900009E-02     9.35071048E-25
  -1.88800003E-02     9.36656461E-25
  -1.88699998E-02     9.38130152E-25
  -1.88599993E-02     9.39481372E-25
  -1.88500006E-02     9.40704698E-25
  -1.88400000E-02     9.41800426E-25
  -1.88299995E-02     9.42774965E-25
  -1.88200008E-02     9.43639655E-25
  -1.88100003E-02     9.44408893E-25
  -1.87999997E-02     9.45098062E-25
  -1.87899992E-02     9.45721064E-25
  -1.87800005E-02     9.46288650E-25
  -1.87700000E-02     9.46806833E-25
  -1.87599994E-02     9.47276994E-25
  -1.87500007E-02     9.47695978E-25
  -1.87400002E-02     9.48057375E-25
  -1.87299997E-02     9.48353296E-25
  -1.87199991E-02     9.48575755E-25
  -1.87100004E-02     9.48717553E-25
  -1.86999999E-02     9.48773759E-25
  -1.86899994E-02     9.48741416E-25
  -1.86800007E-02     9.48619537E-25
  -1.86700001E-02     9.48408615E-25
  -1.86599996E-02     9.48110426E-25
  -1.86500009E-02     9.47727236E-25
  -1.86400004E-02     9.47262104E-25
  -1.86299998E-02     9.46719171E-25
  -1.86199993E-02     9.46103563E-25
  -1.86100006E-02     9.45422283E-25
  -1.86000001E-02     9.44683318E-25
  -1.85899995E-02     9.43896133E-25
  -1.85800008E-02     9.43070985E-25
  -1.85700003E-02     9.42217832E-25
  -1.85599998E-02     9.41346634E-25
  -1.85499992E-02     9.40466166E-25
  -1.85400005E-02     9.39584417E-25
  -1.85300000E-02     9.38708781E-25
  -1.85199995E-02     9.37846458E-25
  -1.85100008E-02     9.37005236E-25
  -1.85000002E-02     9.36193597E-25
  -1.84899997E-02     9.35421401E-25
  -1.84799992E-02     9.34699494E-25
  -1.84700005E-02     9.34038626E-25
  -1.84599999E-02     9.33449544E-25
  -1.84499994E-02     9.32941222E-25
  -1.84400007E-02     9.32520759E-25
  -1.84300002E-02     9.32192100E-25
  -1.84199996E-02     9.31956231E-25
  -1.84099991E-02     9.31810982E-25
  -1.84000004E-02     9.31751620E-25
  -1.83899999E-02     9.31771243E-25
  -1.83799993E-02     9.31861567E-25
  -1.83700006E-02     9.32013817E-25
  -1.83600001E-02     9.32219217E-25
  -1.83499996E-02     9.32470371E-25
  -1.83400009E-02     9.32761559E-25
  -1.83300003E-02     9.33089922E-25
  -1.83199998E-02     9.33455658E-25
  -1.83099993E-02     9.33862217E-25
  -1.83000006E-02     9.34316502E-25
  -1.82900000E-02     9.34827881E-25
  -1.82799995E-02     9.35407201E-25
  -1.82700008E-02     9.36065407E-25
  -1.82600003E-02     9.36811669E-25
  -1.82499997E-02     9.37652003E-25
  -1.82399992E-02     9.38587888E-25
  -1.82300005E-02     9.39615774E-25
  -1.82200000E-02     9.40727871E-25
  -1.82099994E-02     9.41912345E-25
  -1.82000007E-02     9.43155689E-25
  -1.81900002E-02     9.44443899E-25
  -1.81799997E-02     9.45764452E-25
  -1.81699991E-02     9.47107389E-25
  -1.81600004E-02     9.48465314E-25
  -1.81499999E-02     9.49833791E-25
  -1.81399994E-02     9.51209860E-25
  -1.81300007E-02     9.52591254E-25
  -1.81200001E-02     9.53975409E-25
  -1.81099996E-02     9.55358184E-25
  -1.81000009E-02     9.56734056E-25
  -1.80900004E-02     9.58096320E-25
  -1.80799998E-02     9.59437679E-25
  -1.80699993E-02     9.60751034E-25
  -1.80600006E-02     9.62029975E-25
  -1.80500001E-02     9.63269177E-25
  -1.80399995E-02     9.64463709E-25
  -1.80300009E-02     9.65608840E-25
  -1.80200003E-02     9.66698947E-25
  -1.80099998E-02     9.67726339E-25
  -1.79999992E-02     9.68681847E-25
  -1.79900005E-02     9.69554327E-25
  -1.79800000E-02     9.70331947E-25
  -1.79699995E-02     9.71003268E-25
  -1.79600008E-02     9.71559316E-25
  -1.79500002E-02     9.71994274E-25
  -1.79399997E-02     9.72306564E-25
  -1.79299992E-02     9.72499244E-25
  -1.79200005E-02     9.72579214E-25
  -1.79099999E-02     9.72555943E-25
  -1.78999994E-02     9.72439981E-25
  -1.78900007E-02     9.72241483E-25
  -1.78800002E-02     9.71969622E-25
  -1.78699996E-02     9.71631694E-25
  -1.78599991E-02     9.71233812E-25
  -1.78500004E-02     9.70781598E-25
  -1.78399999E-02     9.70281263E-25
  -1.78299993E-02     9.69740301E-25
  -1.78200006E-02     9.69167588E-25
  -1.78100001E-02     9.68573477E-25
  -1.77999996E-02     9.67968816E-25
  -1.77900009E-02     9.67363266E-25
  -1.77800003E-02     9.66765408E-25
  -1.77699998E-02     9.66180764E-25
  -1.77599993E-02     9.65612488E-25
  -1.77500006E-02     9.65060877E-25
  -1.77400000E-02     9.64525240E-25
  -1.77299995E-02     9.64004099E-25
  -1.77200008E-02     9.63496566E-25
  -1.77100003E-02     9.63003331E-25
  -1.76999997E-02     9.62526366E-25
  -1.76899992E-02     9.62069023E-25
  -1.76800005E-02     9.61634657E-25
  -1.76700000E-02     9.61226421E-25
  -1.76599994E-02     9.60846190E-25
  -1.76500008E-02     9.60494358E-25
  -1.76400002E-02     9.60170630E-25
  -1.76299997E-02     9.59874511E-25
  -1.76199991E-02     9.59606397E-25
  -1.76100004E-02     9.59369246E-25
  -1.75999999E-02     9.59168086E-25
  -1.75899994E-02     9.59010906E-25
  -1.75800007E-02     9.58907269E-25
  -1.75700001E-02     9.58867826E-25
  -1.75599996E-02     9.58902437E-25
  -1.75500009E-02     9.59019583E-25
  -1.75400004E-02     9.59225180E-25
  -1.75299998E-02     9.59522482E-25
  -1.75199993E-02     9.59911883E-25
  -1.75100006E-02     9.60391116E-25
  -1.75000001E-02     9.60956237E-25
  -1.74899995E-02     9.61601130E-25
  -1.74800009E-02     9.62317909E-25
  -1.74700003E-02     9.63096712E-25
  -1.74599998E-02     9.63925115E-25
  -1.74499992E-02     9.64788819E-25
  -1.74400005E-02     9.65671653E-25
  -1.74300000E-02     9.66556853E-25
  -1.74199995E-02     9.67429136E-25
  -1.74100008E-02     9.68275781E-25
  -1.74000002E-02     9.69088801E-25
  -1.73899997E-02     9.69865632E-25
  -1.73799992E-02     9.70608837E-25
  -1.73700005E-02     9.71325123E-25
  -1.73599999E-02     9.72023363E-25
  -1.73499994E-02     9.72711645E-25
  -1.73400007E-02     9.73395587E-25
  -1.73300002E-02     9.74077064E-25
  -1.73199996E-02     9.74752822E-25
  -1.73099991E-02     9.75416451E-25
  -1.73000004E-02     9.76058781E-25
  -1.72899999E-02     9.76671135E-25
  -1.72799993E-02     9.77245721E-25
  -1.72700007E-02     9.77778202E-25
  -1.72600001E-02     9.78267296E-25
  -1.72499996E-02     9.78713594E-25
  -1.72400009E-02     9.79118477E-25
  -1.72300003E-02     9.79482240E-25
  -1.72199998E-02     9.79801926E-25
  -1.72099993E-02     9.80071125E-25
  -1.72000006E-02     9.80280075E-25
  -1.71900000E-02     9.80416843E-25
  -1.71799995E-02     9.80469401E-25
  -1.71700008E-02     9.80427000E-25
  -1.71600003E-02     9.80282145E-25
  -1.71499997E-02     9.80030696E-25
  -1.71399992E-02     9.79671468E-25
  -1.71300005E-02     9.79205350E-25
  -1.71200000E-02     9.78632834E-25
  -1.71099994E-02     9.77954020E-25
  -1.71000008E-02     9.77166835E-25
  -1.70900002E-02     9.76267534E-25
  -1.70799997E-02     9.75251481E-25
  -1.70699991E-02     9.74115225E-25
  -1.70600004E-02     9.72857584E-25
  -1.70499999E-02     9.71481120E-25
  -1.70399994E-02     9.69993230E-25
  -1.70300007E-02     9.68405253E-25
  -1.70200001E-02     9.66731586E-25
  -1.70099996E-02     9.64987414E-25
  -1.70000009E-02     9.63187234E-25
  -1.69900004E-02     9.61343074E-25
  -1.69799998E-02     9.59463613E-25
  -1.69699993E-02     9.57554964E-25
  -1.69600006E-02     9.55620776E-25
  -1.69500001E-02     9.53664401E-25
  -1.69399995E-02     9.51689192E-25
  -1.69300009E-02     9.49700375E-25
  -1.69200003E-02     9.47704852E-25
  -1.69099998E-02     9.45710908E-25
  -1.68999992E-02     9.43727613E-25
  -1.68900006E-02     9.41764631E-25
  -1.68800000E-02     9.39831725E-25
  -1.68699995E-02     9.37938557E-25
  -1.68600008E-02     9.36094989E-25
  -1.68500002E-02     9.34312657E-25
  -1.68399997E-02     9.32604477E-25
  -1.68299992E-02     9.30986227E-25
  -1.68200005E-02     9.29475460E-25
  -1.68099999E-02     9.28091305E-25
  -1.67999994E-02     9.26852596E-25
  -1.67900007E-02     9.25776097E-25
  -1.67800002E-02     9.24875612E-25
  -1.67699996E-02     9.24160115E-25
  -1.67599991E-02     9.23634734E-25
  -1.67500004E-02     9.23300454E-25
  -1.67399999E-02     9.23156586E-25
  -1.67299993E-02     9.23201255E-25
  -1.67200007E-02     9.23432884E-25
  -1.67100001E-02     9.23850389E-25
  -1.66999996E-02     9.24452684E-25
  -1.66900009E-02     9.25237404E-25
  -1.66800003E-02     9.26198729E-25
  -1.66699998E-02     9.27326406E-25
  -1.66599993E-02     9.28605051E-25
  -1.66500006E-02     9.30013759E-25
  -1.66400000E-02     9.31528273E-25
  -1.66299995E-02     9.33122956E-25
  -1.66200008E-02     9.34773844E-25
  -1.66100003E-02     9.36460725E-25
  -1.65999997E-02     9.38169299E-25
  -1.65899992E-02     9.39890791E-25
  -1.65800005E-02     9.41620171E-25
  -1.65700000E-02     9.43353989E-25
  -1.65599994E-02     9.45086426E-25
  -1.65500008E-02     9.46806636E-25
  -1.65400002E-02     9.48496474E-25
  -1.65299997E-02     9.50130205E-25
  -1.65199991E-02     9.51675880E-25
  -1.65100005E-02     9.53098294E-25
  -1.64999999E-02     9.54362641E-25
  -1.64899994E-02     9.55438648E-25
  -1.64800007E-02     9.56303338E-25
  -1.64700001E-02     9.56943104E-25
  -1.64599996E-02     9.57354495E-25
  -1.64500009E-02     9.57542737E-25
  -1.64400004E-02     9.57519564E-25
  -1.64299998E-02     9.57301444E-25
  -1.64199993E-02     9.56906422E-25
  -1.64100006E-02     9.56352839E-25
  -1.64000001E-02     9.55657852E-25
  -1.63899995E-02     9.54837240E-25
  -1.63800009E-02     9.53905398E-25
  -1.63700003E-02     9.52875145E-25
  -1.63599998E-02     9.51757625E-25
  -1.63499992E-02     9.50561614E-25
  -1.63400006E-02     9.49293322E-25
  -1.63300000E-02     9.47955612E-25
  -1.63199995E-02     9.46547988E-25
  -1.63100008E-02     9.45067690E-25
  -1.63000003E-02     9.43510085E-25
  -1.62899997E-02     9.41871029E-25
  -1.62799992E-02     9.40148255E-25
  -1.62700005E-02     9.38342454E-25
  -1.62599999E-02     9.36457865E-25
  -1.62499994E-02     9.34501885E-25
  -1.62400007E-02     9.32483978E-25
  -1.62300002E-02     9.30414402E-25
  -1.62199996E-02     9.28302720E-25
  -1.62099991E-02     9.26157215E-25
  -1.62000004E-02     9.23984988E-25
  -1.61899999E-02     9.21792842E-25
  -1.61799993E-02     9.19588568E-25
  -1.61700007E-02     9.17383011E-25
  -1.61600001E-02     9.15190767E-25
  -1.61499996E-02     9.13029880E-25
  -1.61400009E-02     9.10921452E-25
  -1.61300004E-02     9.08886289E-25
  -1.61199998E-02     9.06943916E-25
  -1.61099993E-02     9.05109223E-25
  -1.61000006E-02     9.03392366E-25
  -1.60900000E-02     9.01798768E-25
  -1.60799995E-02     9.00331093E-25
  -1.60700008E-02     8.98991410E-25
  -1.60600003E-02     8.97784452E-25
  -1.60499997E-02     8.96718899E-25
  -1.60399992E-02     8.95807961E-25
  -1.60300005E-02     8.95067714E-25
  -1.60200000E-02     8.94513737E-25
  -1.60099994E-02     8.94157270E-25
  -1.60000008E-02     8.94001273E-25
  -1.59900002E-02     8.94037856E-25
  -1.59799997E-02     8.94247397E-25
  -1.59699991E-02     8.94600708E-25
  -1.59600005E-02     8.95062882E-25
  -1.59499999E-02     8.95599209E-25
  -1.59399994E-02     8.96179909E-25
  -1.59300007E-02     8.96785360E-25
  -1.59200002E-02     8.97407476E-25
  -1.59099996E-02     8.98049707E-25
  -1.59000009E-02     8.98724282E-25
  -1.58900004E-02     8.99447371E-25
  -1.58799998E-02     9.00234753E-25
  -1.58699993E-02     9.01097077E-25
  -1.58600006E-02     9.02037596E-25
  -1.58500001E-02     9.03051578E-25
  -1.58399995E-02     9.04127486E-25
  -1.58300009E-02     9.05250133E-25
  -1.58200003E-02     9.06403744E-25
  -1.58099998E-02     9.07574808E-25
  -1.57999992E-02     9.08754451E-25
  -1.57900006E-02     9.09938925E-25
  -1.57800000E-02     9.11128528E-25
  -1.57699995E-02     9.12325624E-25
  -1.57600008E-02     9.13532976E-25
  -1.57500003E-02     9.14750583E-25
  -1.57399997E-02     9.15974895E-25
  -1.57299992E-02     9.17197235E-25
  -1.57200005E-02     9.18404586E-25
  -1.57099999E-02     9.19580581E-25
  -1.56999994E-02     9.20706680E-25
  -1.56900007E-02     9.21764345E-25
  -1.56800002E-02     9.22737109E-25
  -1.56699996E-02     9.23612745E-25
  -1.56599991E-02     9.24384448E-25
  -1.56500004E-02     9.25052416E-25
  -1.56399999E-02     9.25623452E-25
  -1.56299993E-02     9.26110377E-25
  -1.56199997E-02     9.26530051E-25
  -1.56100001E-02     9.26900027E-25
  -1.55999996E-02     9.27234799E-25
  -1.55900000E-02     9.27542751E-25
  -1.55800004E-02     9.27823585E-25
  -1.55699998E-02     9.28066949E-25
  -1.55600002E-02     9.28254008E-25
  -1.55499997E-02     9.28360504E-25
  -1.55400001E-02     9.28360997E-25
  -1.55300004E-02     9.28234089E-25
  -1.55199999E-02     9.27967158E-25
  -1.55100003E-02     9.27559317E-25
  -1.54999997E-02     9.27021807E-25
  -1.54900001E-02     9.26376322E-25
  -1.54799996E-02     9.25650175E-25
  -1.54700000E-02     9.24871865E-25
  -1.54600004E-02     9.24064762E-25
  -1.54499998E-02     9.23244051E-25
  -1.54400002E-02     9.22414366E-25
  -1.54299997E-02     9.21570877E-25
  -1.54200001E-02     9.20702242E-25
  -1.54100005E-02     9.19794756E-25
  -1.53999999E-02     9.18837178E-25
  -1.53900003E-02     9.17823590E-25
  -1.53799998E-02     9.16755177E-25
  -1.53700002E-02     9.15639826E-25
  -1.53599996E-02     9.14489963E-25
  -1.53500000E-02     9.13319194E-25
  -1.53400004E-02     9.12139354E-25
  -1.53299998E-02     9.10958430E-25
  -1.53200002E-02     9.09779773E-25
  -1.53099997E-02     9.08603483E-25
  -1.53000001E-02     9.07427883E-25
  -1.52899995E-02     9.06253466E-25
  -1.52799999E-02     9.05084078E-25
  -1.52700003E-02     9.03929284E-25
  -1.52599998E-02     9.02804369E-25
  -1.52500002E-02     9.01728363E-25
  -1.52399996E-02     9.00722861E-25
  -1.52300000E-02     8.99809064E-25
  -1.52200004E-02     8.99005708E-25
  -1.52099999E-02     8.98327485E-25
  -1.52000003E-02     8.97784058E-25
  -1.51899997E-02     8.97380063E-25
  -1.51800001E-02     8.97115794E-25
  -1.51699996E-02     8.96986717E-25
  -1.51600000E-02     8.96985336E-25
  -1.51500003E-02     8.97101102E-25
  -1.51399998E-02     8.97320898E-25
  -1.51300002E-02     8.97630723E-25
  -1.51199996E-02     8.98016378E-25
  -1.51100000E-02     8.98465239E-25
  -1.51000004E-02     8.98967448E-25
  -1.50899999E-02     8.99517678E-25
  -1.50800003E-02     9.00115043E-25
  -1.50699997E-02     9.00763093E-25
  -1.50600001E-02     9.01467447E-25
  -1.50499996E-02     9.02234318E-25
  -1.50400000E-02     9.03067848E-25
  -1.50300004E-02     9.03968136E-25
  -1.50199998E-02     9.04930250E-25
  -1.50100002E-02     9.05944430E-25
  -1.49999997E-02     9.06998052E-25
  -1.49900001E-02     9.08077115E-25
  -1.49800004E-02     9.09169885E-25
  -1.49699999E-02     9.10268078E-25
  -1.49600003E-02     9.11368046E-25
  -1.49499997E-02     9.12470479E-25
  -1.49400001E-02     9.13578631E-25
  -1.49299996E-02     9.14696151E-25
  -1.49200000E-02     9.15825110E-25
  -1.49100004E-02     9.16964422E-25
  -1.48999998E-02     9.18109947E-25
  -1.48900002E-02     9.19254978E-25
  -1.48799997E-02     9.20392713E-25
  -1.48700001E-02     9.21517826E-25
  -1.48600005E-02     9.22628246E-25
  -1.48499999E-02     9.23726143E-25
  -1.48400003E-02     9.24816152E-25
  -1.48299998E-02     9.25904287E-25
  -1.48200002E-02     9.26994591E-25
  -1.48099996E-02     9.28087065E-25
  -1.48000000E-02     9.29175792E-25
  -1.47900004E-02     9.30248248E-25
  -1.47799999E-02     9.31286685E-25
  -1.47700002E-02     9.32269507E-25
  -1.47599997E-02     9.33174330E-25
  -1.47500001E-02     9.33979659E-25
  -1.47399995E-02     9.34666264E-25
  -1.47299999E-02     9.35218072E-25
  -1.47200003E-02     9.35621673E-25
  -1.47099998E-02     9.35865234E-25
  -1.47000002E-02     9.35938105E-25
  -1.46899996E-02     9.35831214E-25
  -1.46800000E-02     9.35537856E-25
  -1.46700004E-02     9.35055862E-25
  -1.46599999E-02     9.34389472E-25
  -1.46500003E-02     9.33551307E-25
  -1.46399997E-02     9.32562963E-25
  -1.46300001E-02     9.31453628E-25
  -1.46199996E-02     9.30257320E-25
  -1.46100000E-02     9.29009046E-25
  -1.46000003E-02     9.27739473E-25
  -1.45899998E-02     9.26471872E-25
  -1.45800002E-02     9.25219358E-25
  -1.45699997E-02     9.23985481E-25
  -1.45600000E-02     9.22766100E-25
  -1.45500004E-02     9.21553029E-25
  -1.45399999E-02     9.20338972E-25
  -1.45300003E-02     9.19121464E-25
  -1.45199997E-02     9.17905040E-25
  -1.45100001E-02     9.16701731E-25
  -1.44999996E-02     9.15528695E-25
  -1.44900000E-02     9.14404667E-25
  -1.44800004E-02     9.13345621E-25
  -1.44699998E-02     9.12360630E-25
  -1.44600002E-02     9.11449594E-25
  -1.44499997E-02     9.10602555E-25
  -1.44400001E-02     9.09801861E-25
  -1.44300004E-02     9.09025425E-25
  -1.44199999E-02     9.08251749E-25
  -1.44100003E-02     9.07463677E-25
  -1.43999998E-02     9.06652038E-25
  -1.43900001E-02     9.05816634E-25
  -1.43799996E-02     9.04966144E-25
  -1.43700000E-02     9.04116047E-25
  -1.43600004E-02     9.03285673E-25
  -1.43499998E-02     9.02495530E-25
  -1.43400002E-02     9.01765242E-25
  -1.43299997E-02     9.01111572E-25
  -1.43200001E-02     9.00548621E-25
  -1.43100005E-02     9.00088715E-25
  -1.42999999E-02     8.99742701E-25
  -1.42900003E-02     8.99520834E-25
  -1.42799998E-02     8.99433369E-25
  -1.42700002E-02     8.99489772E-25
  -1.42599996E-02     8.99697539E-25
  -1.42500000E-02     9.00061006E-25
  -1.42400004E-02     9.00579781E-25
  -1.42299999E-02     9.01248143E-25
  -1.42200002E-02     9.02055641E-25
  -1.42099997E-02     9.02987187E-25
  -1.42000001E-02     9.04024835E-25
  -1.41899996E-02     9.05150145E-25
  -1.41799999E-02     9.06344678E-25
  -1.41700003E-02     9.07591275E-25
  -1.41599998E-02     9.08874653E-25
  -1.41500002E-02     9.10180711E-25
  -1.41399996E-02     9.11496630E-25
  -1.41300000E-02     9.12810379E-25
  -1.41200004E-02     9.14110915E-25
  -1.41099999E-02     9.15387884E-25
  -1.41000003E-02     9.16632903E-25
  -1.40899997E-02     9.17839762E-25
  -1.40800001E-02     9.19005008E-25
  -1.40699996E-02     9.20127163E-25
  -1.40600000E-02     9.21206522E-25
  -1.40500003E-02     9.22242986E-25
  -1.40399998E-02     9.23234782E-25
  -1.40300002E-02     9.24176188E-25
  -1.40199997E-02     9.25057938E-25
  -1.40100000E-02     9.25866816E-25
  -1.40000004E-02     9.26588624E-25
  -1.39899999E-02     9.27209753E-25
  -1.39800003E-02     9.27720836E-25
  -1.39699997E-02     9.28119112E-25
  -1.39600001E-02     9.28409315E-25
  -1.39499996E-02     9.28603177E-25
  -1.39400000E-02     9.28717168E-25
  -1.39300004E-02     9.28768937E-25
  -1.39199998E-02     9.28773867E-25
  -1.39100002E-02     9.28742017E-25