  -2.19999999E-02     1.00000002E-24
  -2.19899993E-02     1.00000002E-24
  -2.19800007E-02     1.00000002E-24
  -2.19700001E-02     1.00000002E-24
  -2.19599996E-02     1.00000002E-24
  -2.19500009E-02     1.00000012E-24
  -2.19400004E-02     1.00000012E-24
  -2.19299998E-02     1.00000012E-24
  -2.19199993E-02     1.00000022E-24
  -2.19100006E-02     1.00000022E-24
  -2.19000001E-02     1.00000022E-24
  -2.18899995E-02     1.00000032E-24
  -2.18800008E-02     1.00000022E-24
  -2.18700003E-02     1.00000012E-24
  -2.18599997E-02     1.00000002E-24
  -2.18499992E-02     9.99999921E-25
  -2.18400005E-02     9.99999822E-25
  -2.18300000E-02     9.99999822E-25
  -2.18199994E-02     9.99999822E-25
  -2.18100008E-02     9.99999921E-25
  -2.18000002E-02     1.00000002E-24
  -2.17899997E-02     1.00000012E-24
  -2.17799991E-02     1.00000022E-24
  -2.17700005E-02     1.00000041E-24
  -2.17599999E-02     1.00000041E-24
  -2.17499994E-02     1.00000041E-24
  -2.17400007E-02     1.00000041E-24
  -2.17300002E-02     1.00000032E-24
  -2.17199996E-02     1.00000012E-24
  -2.17099991E-02     9.99999921E-25
  -2.17000004E-02     9.99999822E-25
  -2.16899998E-02     9.99999822E-25
  -2.16799993E-02     9.99999822E-25
  -2.16700006E-02     9.99999921E-25
  -2.16600001E-02     1.00000012E-24
  -2.16499995E-02     1.00000032E-24
  -2.16400009E-02     1.00000041E-24
  -2.16300003E-02     1.00000061E-24
  -2.16199998E-02     1.00000071E-24
  -2.16099992E-02     1.00000091E-24
  -2.16000006E-02     1.00000101E-24
  -2.15900000E-02     1.00000101E-24
  -2.15799995E-02     1.00000101E-24
  -2.15700008E-02     1.00000061E-24
  -2.15600003E-02     1.00000012E-24
  -2.15499997E-02     9.99999231E-25
  -2.15399992E-02     9.99998146E-25
  -2.15300005E-02     9.99996864E-25
  -2.15200000E-02     9.99995681E-25
  -2.15099994E-02     9.99995089E-25
  -2.15000007E-02     9.99995286E-25
  -2.14900002E-02     9.99996568E-25
  -2.14799996E-02     9.99999132E-25
  -2.14699991E-02     1.00000288E-24
  -2.14600004E-02     1.00000742E-24
  -2.14499999E-02     1.00001225E-24
  -2.14399993E-02     1.00001649E-24
  -2.14300007E-02     1.00001905E-24
  -2.14200001E-02     1.00001915E-24
  -2.14099996E-02     1.00001580E-24
  -2.14000009E-02     1.00000880E-24
  -2.13900004E-02     9.99998343E-25
  -2.13799998E-02     9.99985130E-25
  -2.13699993E-02     9.99970930E-25
  -2.13600006E-02     9.99957618E-25
  -2.13500001E-02     9.99947363E-25
  -2.13399995E-02     9.99942531E-25
  -2.13300008E-02     9.99944996E-25
  -2.13200003E-02     9.99955942E-25
  -2.13099997E-02     9.99975466E-25
  -2.12999992E-02     1.00000229E-24
  -2.12900005E-02     1.00003394E-24
  -2.12800000E-02     1.00006658E-24
  -2.12699994E-02     1.00009587E-24
  -2.12600008E-02     1.00011736E-24
  -2.12500002E-02     1.00012693E-24
  -2.12399997E-02     1.00012200E-24
  -2.12299991E-02     1.00010139E-24
  -2.12200005E-02     1.00006658E-24
  -2.12099999E-02     1.00002083E-24
  -2.11999994E-02     9.99969648E-25
  -2.11900007E-02     9.99919654E-25
  -2.11800002E-02     9.99878042E-25
  -2.11699996E-02     9.99851221E-25
  -2.11599991E-02     9.99843726E-25
  -2.11500004E-02     9.99857433E-25
  -2.11399999E-02     9.99890960E-25
  -2.11299993E-02     9.99939573E-25
  -2.11200006E-02     9.99995484E-25
  -2.11100001E-02     1.00004863E-24
  -2.10999995E-02     1.00008837E-24
  -2.10900009E-02     1.00010454E-24
  -2.10800003E-02     1.00008946E-24
  -2.10699998E-02     1.00003907E-24
  -2.10599992E-02     9.99954463E-25
  -2.10500006E-02     9.99842149E-25
  -2.10400000E-02     9.99713762E-25
  -2.10299995E-02     9.99585670E-25
  -2.10200008E-02     9.99476906E-25
  -2.10100003E-02     9.99407881E-25
  -2.09999997E-02     9.99397231E-25
  -2.09899992E-02     9.99460044E-25
  -2.09800005E-02     9.99605392E-25
  -2.09700000E-02     9.99835049E-25
  -2.09599994E-02     1.00014221E-24
  -2.09500007E-02     1.00051150E-24
  -2.09400002E-02     1.00092003E-24
  -2.09299996E-02     1.00133852E-24
  -2.09199991E-02     1.00173403E-24
  -2.09100004E-02     1.00207226E-24
  -2.08999999E-02     1.00231976E-24
  -2.08899993E-02     1.00244697E-24
  -2.08800007E-02     1.00242971E-24
  -2.08700001E-02     1.00225054E-24
  -2.08599996E-02     1.00189900E-24
  -2.08500009E-02     1.00137155E-24
  -2.08400004E-02     1.00067055E-24
  -2.08299998E-02     9.99802804E-25
  -2.08199993E-02     9.98778173E-25
  -2.08100006E-02     9.97607602E-25
  -2.08000001E-02     9.96302135E-25
  -2.07899995E-02     9.94872128E-25
  -2.07800008E-02     9.93326947E-25
  -2.07700003E-02     9.91675368E-25
  -2.07599998E-02     9.89927252E-25
  -2.07499992E-02     9.88094334E-25
  -2.07400005E-02     9.86192489E-25
  -2.07300000E-02     9.84242917E-25
  -2.07199994E-02     9.82273329E-25
  -2.07100008E-02     9.80318236E-25
  -2.07000002E-02     9.78418659E-25
  -2.06899997E-02     9.76620253E-25
  -2.06799991E-02     9.74970844E-25
  -2.06700005E-02     9.73517466E-25
  -2.06599999E-02     9.72302226E-25
  -2.06499994E-02     9.71359241E-25
  -2.06400007E-02     9.70711389E-25
  -2.06300002E-02     9.70367742E-25
  -2.06199996E-02     9.70322678E-25
  -2.06099991E-02     9.70556181E-25
  -2.06000004E-02     9.71035512E-25
  -2.05899999E-02     9.71718271E-25
  -2.05799993E-02     9.72556042E-25
  -2.05700006E-02     9.73498829E-25
  -2.05600001E-02     9.74499696E-25
  -2.05499995E-02     9.75518412E-25
  -2.05400009E-02     9.76524900E-25
  -2.05300003E-02     9.77500523E-25
  -2.05199998E-02     9.78439070E-25
  -2.05099992E-02     9.79345274E-25
  -2.05000006E-02     9.80232940E-25
  -2.04900000E-02     9.81121296E-25
  -2.04799995E-02     9.82030951E-25
  -2.04700008E-02     9.82980740E-25
  -2.04600003E-02     9.83983086E-25
  -2.04499997E-02     9.85042329E-25
  -2.04399992E-02     9.86152059E-25
  -2.04300005E-02     9.87295513E-25
  -2.04200000E-02     9.88446264E-25
  -2.04099994E-02     9.89570095E-25
  -2.04000007E-02     9.90628155E-25
  -2.03900002E-02     9.91580310E-25
  -2.03799997E-02     9.92388596E-25
  -2.03699991E-02     9.93019882E-25
  -2.03600004E-02     9.93449220E-25
  -2.03499999E-02     9.93660832E-25
  -2.03399993E-02     9.93648605E-25
  -2.03300007E-02     9.93415398E-25
  -2.03200001E-02     9.92972452E-25
  -2.03099996E-02     9.92336729E-25
  -2.03000009E-02     9.91528639E-25
  -2.02900004E-02     9.90569779E-25
  -2.02799998E-02     9.89480264E-25
  -2.02699993E-02     9.88277744E-25
  -2.02600006E-02     9.86975729E-25
  -2.02500001E-02     9.85583882E-25
  -2.02399995E-02     9.84108318E-25
  -2.02300008E-02     9.82552882E-25
  -2.02200003E-02     9.80920728E-25
  -2.02099998E-02     9.79216394E-25
  -2.01999992E-02     9.77447571E-25
  -2.01900005E-02     9.75626979E-25
  -2.01800000E-02     9.73773155E-25
  -2.01699995E-02     9.71911740E-25
  -2.01600008E-02     9.70075271E-25
  -2.01500002E-02     9.68302208E-25
  -2.01399997E-02     9.66635838E-25
  -2.01299991E-02     9.65122014E-25
  -2.01200005E-02     9.63806588E-25
  -2.01099999E-02     9.62732653E-25
  -2.00999994E-02     9.61937481E-25
  -2.00900007E-02     9.61450162E-25
  -2.00800002E-02     9.61288446E-25
  -2.00699996E-02     9.61457656E-25
  -2.00599991E-02     9.61949117E-25
  -2.00500004E-02     9.62740640E-25
  -2.00399999E-02     9.63797516E-25
  -2.00299993E-02     9.65073696E-25
  -2.00200006E-02     9.66515537E-25
  -2.00100001E-02     9.68064070E-25
  -1.99999996E-02     9.69659739E-25
  -1.99900009E-02     9.71245349E-25
  -1.99800003E-02     9.72769626E-25
  -1.99699998E-02     9.74190167E-25
  -1.99599992E-02     9.75475616E-25
  -1.99500006E-02     9.76606645E-25
  -1.99400000E-02     9.77576155E-25
  -1.99299995E-02     9.78388189E-25
  -1.99200008E-02     9.79056058E-25
  -1.99100003E-02     9.79599485E-25
  -1.98999997E-02     9.80041543E-25
  -1.98899992E-02     9.80404813E-25
  -1.98800005E-02     9.80708623E-25
  -1.98700000E-02     9.80966482E-25
  -1.98599994E-02     9.81184011E-25
  -1.98500007E-02     9.81358645E-25
  -1.98400002E-02     9.81480721E-25
  -1.98299997E-02     9.81535054E-25
  -1.98199991E-02     9.81504091E-25
  -1.98100004E-02     9.81371562E-25
  -1.97999999E-02     9.81126128E-25
  -1.97899994E-02     9.80764830E-25
  -1.97800007E-02     9.80295162E-25
  -1.97700001E-02     9.79736155E-25
  -1.97599996E-02     9.79117984E-25
  -1.97500009E-02     9.78479598E-25
  -1.97400004E-02     9.77864977E-25
  -1.97299998E-02     9.77318987E-25
  -1.97199993E-02     9.76881958E-25
  -1.97100006E-02     9.76584754E-25
  -1.97000001E-02     9.76445520E-25
  -1.96899995E-02     9.76466622E-25
  -1.96800008E-02     9.76634551E-25
  -1.96700003E-02     9.76921302E-25
  -1.96599998E-02     9.77288024E-25
  -1.96499992E-02     9.77689061E-25
  -1.96400005E-02     9.78078758E-25
  -1.96300000E-02     9.78416194E-25
  -1.96199995E-02     9.78670996E-25
  -1.96100008E-02     9.78826697E-25
  -1.96000002E-02     9.78882608E-25
  -1.95899997E-02     9.78852927E-25
  -1.95799991E-02     9.78764969E-25
  -1.95700005E-02     9.78653641E-25
  -1.95599999E-02     9.78556808E-25
  -1.95499994E-02     9.78508983E-25
  -1.95400007E-02     9.78536199E-25
  -1.95300002E-02     9.78652162E-25
  -1.95199996E-02     9.78856575E-25
  -1.95099991E-02     9.79135240E-25
  -1.95000004E-02     9.79462716E-25
  -1.94899999E-02     9.79806166E-25
  -1.94799993E-02     9.80131572E-25
  -1.94700006E-02     9.80408265E-25
  -1.94600001E-02     9.80614453E-25
  -1.94499996E-02     9.80740769E-25
  -1.94400009E-02     9.80791355E-25
  -1.94300003E-02     9.80784058E-25
  -1.94199998E-02     9.80746982E-25
  -1.94099993E-02     9.80714836E-25
  -1.94000006E-02     9.80723217E-25
  -1.93900000E-02     9.80802794E-25
  -1.93799995E-02     9.80975160E-25
  -1.93700008E-02     9.81248007E-25
  -1.93600003E-02     9.81613940E-25
  -1.93499997E-02     9.82050081E-25
  -1.93399992E-02     9.82520341E-25
  -1.93300005E-02     9.82979458E-25
  -1.93200000E-02     9.83377636E-25
  -1.93099994E-02     9.83666359E-25
  -1.93000007E-02     9.83804212E-25
  -1.92900002E-02     9.83761121E-25
  -1.92799997E-02     9.83521899E-25
  -1.92699991E-02     9.83087926E-25
  -1.92600004E-02     9.82477348E-25
  -1.92499999E-02     9.81722507E-25
  -1.92399994E-02     9.80867086E-25
  -1.92300007E-02     9.79961572E-25
  -1.92200001E-02     9.79058819E-25
  -1.92099996E-02     9.78209611E-25
  -1.92000009E-02     9.77458319E-25
  -1.91900004E-02     9.76840148E-25
  -1.91799998E-02     9.76379355E-25
  -1.91699993E-02     9.76088659E-25
  -1.91600006E-02     9.75970034E-25
  -1.91500001E-02     9.76016281E-25
  -1.91399995E-02     9.76213201E-25
  -1.91300008E-02     9.76541564E-25
  -1.91200003E-02     9.76979875E-25
  -1.91099998E-02     9.77505848E-25
  -1.90999992E-02     9.78097790E-25
  -1.90900005E-02     9.78735386E-25
  -1.90800000E-02     9.79400298E-25
  -1.90699995E-02     9.80075858E-25
  -1.90600008E-02     9.80747475E-25
  -1.90500002E-02     9.81402229E-25
  -1.90399997E-02     9.82029472E-25
  -1.90299992E-02     9.82620526E-25
  -1.90200005E-02     9.83169869E-25
  -1.90099999E-02     9.83675233E-25
  -1.89999994E-02     9.84137999E-25
  -1.89900007E-02     9.84563096E-25
  -1.89800002E-02     9.84958513E-25
  -1.89699996E-02     9.85334011E-25
  -1.89599991E-02     9.85698957E-25
  -1.89500004E-02     9.86060749E-25
  -1.89399999E-02     9.86422047E-25
  -1.89299993E-02     9.86778908E-25
  -1.89200006E-02     9.87119499E-25
  -1.89100001E-02     9.87423703E-25
  -1.88999996E-02     9.87664109E-25
  -1.88900009E-02     9.87808174E-25
  -1.88800003E-02     9.87821486E-25
  -1.88699998E-02     9.87672490E-25
  -1.88599993E-02     9.87337027E-25
  -1.88500006E-02     9.86802475E-25
  -1.88400000E-02     9.86071497E-25
  -1.88299995E-02     9.85163124E-25
  -1.88200008E-02     9.84112361E-25
  -1.88100003E-02     9.82967625E-25
  -1.87999997E-02     9.81785517E-25
  -1.87899992E-02     9.80624314E-25
  -1.87800005E-02     9.79536869E-25
  -1.87700000E-02     9.78563711E-25
  -1.87599994E-02     9.77727222E-25
  -1.87500007E-02     9.77029080E-25
  -1.87400002E-02     9.76449563E-25
  -1.87299997E-02     9.75950707E-25
  -1.87199991E-02     9.75482518E-25
  -1.87100004E-02     9.74991354E-25
  -1.86999999E-02     9.74429093E-25
  -1.86899994E-02     9.73762703E-25
  -1.86800007E-02     9.72980350E-25
  -1.86700001E-02     9.72097023E-25
  -1.86599996E-02     9.71153546E-25
  -1.86500009E-02     9.70213421E-25
  -1.86400004E-02     9.69355436E-25
  -1.86299998E-02     9.68663013E-25
  -1.86199993E-02     9.68212574E-25
  -1.86100006E-02     9.68062394E-25
  -1.86000001E-02     9.68242649E-25
  -1.85899995E-02     9.68750084E-25
  -1.85800008E-02     9.69545748E-25
  -1.85700003E-02     9.70558744E-25
  -1.85599998E-02     9.71693718E-25
  -1.85499992E-02     9.72842595E-25
  -1.85400005E-02     9.73897105E-25
  -1.85300000E-02     9.74762781E-25
  -1.85199995E-02     9.75369810E-25
  -1.85100008E-02     9.75682002E-25
  -1.85000002E-02     9.75699455E-25
  -1.84899997E-02     9.75458458E-25
  -1.84799992E-02     9.75024092E-25
  -1.84700005E-02     9.74481355E-25
  -1.84599999E-02     9.73921954E-25
  -1.84499994E-02     9.73431579E-25
  -1.84400007E-02     9.73078169E-25
  -1.84300002E-02     9.72902943E-25
  -1.84199996E-02     9.72915664E-25
  -1.84099991E-02     9.73094932E-25
  -1.84000004E-02     9.73392431E-25
  -1.83899999E-02     9.73741601E-25
  -1.83799993E-02     9.74068091E-25
  -1.83700006E-02     9.74301692E-25
  -1.83600001E-02     9.74386889E-25
  -1.83499996E-02     9.74291338E-25
  -1.83400009E-02     9.74010405E-25
  -1.83300003E-02     9.73568446E-25
  -1.83199998E-02     9.73015257E-25
  -1.83099993E-02     9.72419273E-25
  -1.83000006E-02     9.71859083E-25
  -1.82900000E-02     9.71412489E-25
  -1.82799995E-02     9.71146939E-25
  -1.82700008E-02     9.71111144E-25
  -1.82600003E-02     9.71329462E-25
  -1.82499997E-02     9.71799425E-25
  -1.82399992E-02     9.72492243E-25
  -1.82300005E-02     9.73357327E-25
  -1.82200000E-02     9.74327823E-25
  -1.82099994E-02     9.75329972E-25
  -1.82000007E-02     9.76291101E-25
  -1.81900002E-02     9.77148790E-25
  -1.81799997E-02     9.77857187E-25
  -1.81699991E-02     9.78392824E-25
  -1.81600004E-02     9.78756587E-25
  -1.81499999E-02     9.78972932E-25
  -1.81399994E-02     9.79086232E-25
  -1.81300007E-02     9.79154962E-25
  -1.81200001E-02     9.79243610E-25
  -1.81099996E-02     9.79414596E-25
  -1.81000009E-02     9.79719983E-25
  -1.80900004E-02     9.80193596E-25
  -1.80799998E-02     9.80846280E-25
  -1.80699993E-02     9.81664032E-25
  -1.80600006E-02     9.82608299E-25
  -1.80500001E-02     9.83619520E-25
  -1.80399995E-02     9.84624134E-25
  -1.80300009E-02     9.85542171E-25
  -1.80200003E-02     9.86296618E-25
  -1.80099998E-02     9.86821605E-25
  -1.79999992E-02     9.87069702E-25
  -1.79900005E-02     9.87016552E-25
  -1.79800000E-02     9.86662847E-25
  -1.79699995E-02     9.86033927E-25
  -1.79600008E-02     9.85174858E-25
  -1.79500002E-02     9.84145592E-25
  -1.79399997E-02     9.83012886E-25
  -1.79299992E-02     9.81842118E-25
  -1.79200005E-02     9.80690874E-25
  -1.79099999E-02     9.79602345E-25
  -1.78999994E-02     9.78601872E-25
  -1.78900007E-02     9.77696259E-25
  -1.78800002E-02     9.76874661E-25
  -1.78699996E-02     9.76112424E-25
  -1.78599991E-02     9.75376022E-25
  -1.78500004E-02     9.74629563E-25
  -1.78399999E-02     9.73840307E-25
  -1.78299993E-02     9.72984393E-25
  -1.78200006E-02     9.72051072E-25
  -1.78100001E-02     9.71044781E-25
  -1.77999996E-02     9.69985637E-25
  -1.77900009E-02     9.68907659E-25
  -1.77800003E-02     9.67855220E-25
  -1.77699998E-02     9.66878906E-25
  -1.77599993E-02     9.66029598E-25
  -1.77500006E-02     9.65354037E-25
  -1.77400000E-02     9.64889793E-25
  -1.77299995E-02     9.64661516E-25
  -1.77200008E-02     9.64678477E-25
  -1.77100003E-02     9.64933575E-25
  -1.76999997E-02     9.65404032E-25
  -1.76899992E-02     9.66052475E-25
  -1.76800005E-02     9.66830095E-25
  -1.76700000E-02     9.67680783E-25
  -1.76599994E-02     9.68544388E-25
  -1.76500008E-02     9.69362338E-25
  -1.76400002E-02     9.70081188E-25
  -1.76299997E-02     9.70657549E-25
  -1.76199991E-02     9.71060854E-25
  -1.76100004E-02     9.71276509E-25
  -1.75999999E-02     9.71307078E-25
  -1.75899994E-02     9.71172675E-25
  -1.75800007E-02     9.70909196E-25
  -1.75700001E-02     9.70565548E-25
  -1.75599996E-02     9.70199024E-25
  -1.75500009E-02     9.69869477E-25
  -1.75400004E-02     9.69632918E-25
  -1.75299998E-02     9.69535000E-25
  -1.75199993E-02     9.69605801E-25
  -1.75100006E-02     9.69854785E-25
  -1.75000001E-02     9.70269726E-25
  -1.74899995E-02     9.70816702E-25
  -1.74800009E-02     9.71444044E-25
  -1.74700003E-02     9.72088444E-25
  -1.74599998E-02     9.72683147E-25
  -1.74499992E-02     9.73167606E-25
  -1.74400005E-02     9.73496857E-25
  -1.74300000E-02     9.73648417E-25
  -1.74199995E-02     9.73627512E-25
  -1.74100008E-02     9.73467669E-25
  -1.74000002E-02     9.73227560E-25
  -1.73899997E-02     9.72983111E-25
  -1.73799992E-02     9.72816760E-25
  -1.73700005E-02     9.72804829E-25
  -1.73599999E-02     9.73004608E-25
  -1.73499994E-02     9.73443214E-25
  -1.73400007E-02     9.74110196E-25
  -1.73300002E-02     9.74955757E-25
  -1.73199996E-02     9.75893712E-25
  -1.73099991E-02     9.76811946E-25
  -1.73000004E-02     9.77585917E-25
  -1.72899999E-02     9.78096015E-25
  -1.72799993E-02     9.78245307E-25
  -1.72700007E-02     9.77973840E-25
  -1.72600001E-02     9.77270274E-25
  -1.72499996E-02     9.76175237E-25
  -1.72400009E-02     9.74778066E-25
  -1.72300003E-02     9.73206655E-25
  -1.72199998E-02     9.71611085E-25
  -1.72099993E-02     9.70143804E-25
  -1.72000006E-02     9.68939509E-25
  -1.71900000E-02     9.68096414E-25
  -1.71799995E-02     9.67663822E-25
  -1.71700008E-02     9.67635916E-25
  -1.71600003E-02     9.67954419E-25
  -1.71499997E-02     9.68517567E-25
  -1.71399992E-02     9.69197171E-25
  -1.71300005E-02     9.69857447E-25
  -1.71200000E-02     9.70376222E-25
  -1.71099994E-02     9.70662578E-25
  -1.71000008E-02     9.70669382E-25
  -1.70900002E-02     9.70400085E-25
  -1.70799997E-02     9.69906652E-25
  -1.70699991E-02     9.69280001E-25
  -1.70600004E-02     9.68635896E-25
  -1.70499999E-02     9.68095625E-25
  -1.70399994E-02     9.67766966E-25
  -1.70300007E-02     9.67728016E-25
  -1.70200001E-02     9.68014175E-25
  -1.70099996E-02     9.68612723E-25
  -1.70000009E-02     9.69464594E-25
  -1.69900004E-02     9.70472068E-25
  -1.69799998E-02     9.71512083E-25
  -1.69699993E-02     9.72452898E-25
  -1.69600006E-02     9.73171057E-25
  -1.69500001E-02     9.73566474E-25
  -1.69399995E-02     9.73574560E-25
  -1.69300009E-02     9.73171846E-25
  -1.69200003E-02     9.72376576E-25
  -1.69099998E-02     9.71243377E-25
  -1.68999992E-02     9.69853207E-25
  -1.68900006E-02     9.68300827E-25
  -1.68800000E-02     9.66681099E-25
  -1.68699995E-02     9.65076161E-25
  -1.68600008E-02     9.63545179E-25
  -1.68500002E-02     9.62118722E-25
  -1.68399997E-02     9.60796196E-25
  -1.68299992E-02     9.59548909E-25
  -1.68200005E-02     9.58325090E-25
  -1.68099999E-02     9.57060052E-25
  -1.67999994E-02     9.55685660E-25
  -1.67900007E-02     9.54141169E-25
  -1.67800002E-02     9.52382699E-25
  -1.67699996E-02     9.50390529E-25
  -1.67599991E-02     9.48173929E-25
  -1.67500004E-02     9.45771749E-25
  -1.67399999E-02     9.43250352E-25
  -1.67299993E-02     9.40698880E-25
  -1.67200007E-02     9.38220181E-25
  -1.67100001E-02     9.35922722E-25
  -1.66999996E-02     9.33909352E-25
  -1.66900009E-02     9.32267140E-25
  -1.66800003E-02     9.31059197E-25
  -1.66699998E-02     9.30318457E-25
  -1.66599993E-02     9.30044229E-25
  -1.66500006E-02     9.30203184E-25
  -1.66400000E-02     9.30733989E-25
  -1.66299995E-02     9.31554404E-25
  -1.66200008E-02     9.32571739E-25
  -1.66100003E-02     9.33693401E-25
  -1.65999997E-02     9.34838235E-25
  -1.65899992E-02     9.35944711E-25
  -1.65800005E-02     9.36977232E-25
  -1.65700000E-02     9.37927908E-25
  -1.65599994E-02     9.38814193E-25
  -1.65500008E-02     9.39672769E-25
  -1.65400002E-02     9.40550574E-25
  -1.65299997E-02     9.41493657E-25
  -1.65199991E-02     9.42536630E-25
  -1.65100005E-02     9.43693199E-25
  -1.64999999E-02     9.44950545E-25
  -1.64899994E-02     9.46266759E-25
  -1.64800007E-02     9.47573310E-25
  -1.64700001E-02     9.48780957E-25
  -1.64599996E-02     9.49789417E-25
  -1.64500009E-02     9.50497814E-25
  -1.64400004E-02     9.50816218E-25
  -1.64299998E-02     9.50675801E-25
  -1.64199993E-02     9.50036232E-25
  -1.64100006E-02     9.48889623E-25
  -1.64000001E-02     9.47261315E-25
  -1.63899995E-02     9.45206135E-25
  -1.63800009E-02     9.42802279E-25
  -1.63700003E-02     9.40142930E-25
  -1.63599998E-02     9.37327486E-25
  -1.63499992E-02     9.34452384E-25
  -1.63400006E-02     9.31604201E-25
  -1.63300000E-02     9.28854134E-25
  -1.63199995E-02     9.26255330E-25
  -1.63100008E-02     9.23842106E-25
  -1.63000003E-02     9.21632309E-25
  -1.62899997E-02     9.19629884E-25
  -1.62799992E-02     9.17829901E-25
  -1.62700005E-02     9.16222301E-25
  -1.62599999E-02     9.14796041E-25
  -1.62499994E-02     9.13542442E-25
  -1.62400007E-02     9.12456378E-25
  -1.62300002E-02     9.11536960E-25
  -1.62199996E-02     9.10787641E-25
  -1.62099991E-02     9.10214238E-25
  -1.62000004E-02     9.09824245E-25
  -1.61899999E-02     9.09624663E-25
  -1.61799993E-02     9.09620127E-25
  -1.61700007E-02     9.09811919E-25
  -1.61600001E-02     9.10196784E-25
  -1.61499996E-02     9.10765947E-25
  -1.61400009E-02     9.11504716E-25
  -1.61300004E-02     9.12392283E-25
  -1.61199998E-02     9.13401532E-25
  -1.61099993E-02     9.14500021E-25
  -1.61000006E-02     9.15649884E-25
  -1.60900000E-02     9.16809707E-25
  -1.60799995E-02     9.17935313E-25
  -1.60700008E-02     9.18982525E-25
  -1.60600003E-02     9.19909043E-25
  -1.60499997E-02     9.20677492E-25
  -1.60399992E-02     9.21257009E-25
  -1.60300005E-02     9.21625604E-25
  -1.60200000E-02     9.21771543E-25
  -1.60099994E-02     9.21693249E-25
  -1.60000008E-02     9.21399102E-25
  -1.59900002E-02     9.20906163E-25
  -1.59799997E-02     9.20237800E-25
  -1.59699991E-02     9.19421724E-25
  -1.59600005E-02     9.18487022E-25
  -1.59499999E-02     9.17461503E-25
  -1.59399994E-02     9.16369720E-25
  -1.59300007E-02     9.15231295E-25
  -1.59200002E-02     9.14060724E-25
  -1.59099996E-02     9.12866881E-25
  -1.59000009E-02     9.11654797E-25
  -1.58900004E-02     9.10427329E-25
  -1.58799998E-02     9.09186254E-25
  -1.58699993E-02     9.07934726E-25
  -1.58600006E-02     9.06678563E-25
  -1.58500001E-02     9.05426740E-25
  -1.58399995E-02     9.04191383E-25
  -1.58300009E-02     9.02986891E-25
  -1.58200003E-02     9.01827562E-25
  -1.58099998E-02     9.00725326E-25
  -1.57999992E-02     8.99686593E-25
  -1.57900006E-02     8.98709688E-25
  -1.57800000E-02     8.97784058E-25
  -1.57699995E-02     8.96889786E-25
  -1.57600008E-02     8.95999359E-25
  -1.57500003E-02     8.95081223E-25
  -1.57399997E-02     8.94104614E-25
  -1.57299992E-02     8.93045666E-25
  -1.57200005E-02     8.91892352E-25
  -1.57099999E-02     8.90649600E-25
  -1.56999994E-02     8.89342063E-25
  -1.56900007E-02     8.88013917E-25
  -1.56800002E-02     8.86726496E-25
  -1.56699996E-02     8.85552079E-25
  -1.56599991E-02     8.84565707E-25
  -1.56500004E-02     8.83835913E-25
  -1.56399999E-02     8.83415154E-25
  -1.56299993E-02     8.83332225E-25
  -1.56199997E-02     8.83586632E-25
  -1.56100001E-02     8.84148203E-25
  -1.55999996E-02     8.84959645E-25
  -1.55900000E-02     8.85944439E-25
  -1.55800004E-02     8.87015909E-25
  -1.55699998E-02     8.88090042E-25
  -1.55600002E-02     8.89096629E-25
  -1.55499997E-02     8.89989126E-25
  -1.55400001E-02     8.90751363E-25
  -1.55300004E-02     8.91398229E-25
  -1.55199999E-02     8.91973111E-25
  -1.55100003E-02     8.92539415E-25
  -1.54999997E-02     8.93168926E-25
  -1.54900001E-02     8.93929092E-25
  -1.54799996E-02     8.94870104E-25
  -1.54700000E-02     8.96014347E-25
  -1.54600004E-02     8.97349987E-25
  -1.54499998E-02     8.98829101E-25
  -1.54400002E-02     9.00372508E-25
  -1.54299997E-02     9.01877753E-25
  -1.54200001E-02     9.03232227E-25
  -1.54100005E-02     9.04328152E-25
  -1.53999999E-02     9.05077471E-25
  -1.53900003E-02     9.05424274E-25
  -1.53799998E-02     9.05354066E-25
  -1.53700002E-02     9.04897315E-25
  -1.53599996E-02     9.04127387E-25
  -1.53500000E-02     9.03152256E-25
  -1.53400004E-02     9.02102085E-25
  -1.53299998E-02     9.01113347E-25
  -1.53200002E-02     9.00311568E-25
  -1.53099997E-02     8.99795456E-25
  -1.53000001E-02     8.99624372E-25
  -1.52899995E-02     8.99809261E-25
  -1.52799999E-02     9.00311470E-25
  -1.52700003E-02     9.01046885E-25
  -1.52599998E-02     9.01896686E-25
  -1.52500002E-02     9.02722327E-25
  -1.52399996E-02     9.03384182E-25
  -1.52300000E-02     9.03760863E-25
  -1.52200004E-02     9.03766286E-25
  -1.52099999E-02     9.03362586E-25
  -1.52000003E-02     9.02567711E-25
  -1.51899997E-02     9.01454628E-25
  -1.51800001E-02     9.00144724E-25
  -1.51699996E-02     8.98793110E-25
  -1.51600000E-02     8.97569685E-25
  -1.51500003E-02     8.96637744E-25
  -1.51399998E-02     8.96131789E-25
  -1.51300002E-02     8.96139480E-25
  -1.51199996E-02     8.96688725E-25
  -1.51100000E-02     8.97742939E-25
  -1.51000004E-02     8.99204895E-25
  -1.50899999E-02     9.00928458E-25
  -1.50800003E-02     9.02738104E-25
  -1.50699997E-02     9.04452595E-25
  -1.50600001E-02     9.05909917E-25
  -1.50499996E-02     9.06988881E-25
  -1.50400000E-02     9.07627563E-25
  -1.50300004E-02     9.07831188E-25
  -1.50199998E-02     9.07672232E-25
  -1.50100002E-02     9.07279084E-25
  -1.49999997E-02     9.06817994E-25
  -1.49900001E-02     9.06467543E-25
  -1.49800004E-02     9.06392305E-25
  -1.49699999E-02     9.06716724E-25
  -1.49600003E-02     9.07505487E-25
  -1.49499997E-02     9.08751986E-25
  -1.49400001E-02     9.10376743E-25
  -1.49299996E-02     9.12236483E-25
  -1.49200000E-02     9.14142272E-25
  -1.49100004E-02     9.15884471E-25
  -1.48999998E-02     9.17260639E-25
  -1.48900002E-02     9.18102551E-25
  -1.48799997E-02     9.18298583E-25
  -1.48700001E-02     9.17808306E-25
  -1.48600005E-02     9.16667021E-25
  -1.48499999E-02     9.14980437E-25
  -1.48400003E-02     9.12908888E-25
  -1.48299998E-02     9.10646041E-25
  -1.48200002E-02     9.08391673E-25
  -1.48099996E-02     9.06325942E-25
  -1.48000000E-02     9.04586406E-25
  -1.47900004E-02     9.03251554E-25
  -1.47799999E-02     9.02332827E-25
  -1.47700002E-02     9.01776384E-25
  -1.47599997E-02     9.01473659E-25
  -1.47500001E-02     9.01278515E-25
  -1.47399995E-02     9.01030516E-25
  -1.47299999E-02     9.00578302E-25
  -1.47200003E-02     8.99802556E-25
  -1.47099998E-02     8.98633168E-25
  -1.47000002E-02     8.97060574E-25
  -1.46899996E-02     8.95138416E-25
  -1.46800000E-02     8.92977331E-25
  -1.46700004E-02     8.90732825E-25
  -1.46599999E-02     8.88586236E-25
  -1.46500003E-02     8.86722552E-25
  -1.46399997E-02     8.85308617E-25
  -1.46300001E-02     8.84472819E-25
  -1.46199996E-02     8.84289014E-25
  -1.46100000E-02     8.84767853E-25
  -1.46000003E-02     8.85855199E-25
  -1.45899998E-02     8.87437556E-25
  -1.45800002E-02     8.89355474E-25
  -1.45699997E-02     8.91422289E-25
  -1.45600000E-02     8.93445224E-25
  -1.45500004E-02     8.95248265E-25
  -1.45399999E-02     8.96692768E-25
  -1.45300003E-02     8.97693339E-25
  -1.45199997E-02     8.98227792E-25
  -1.45100001E-02     8.98339219E-25
  -1.44999996E-02     8.98130467E-25
  -1.44900000E-02     8.97749644E-25
  -1.44800004E-02     8.97371582E-25
  -1.44699998E-02     8.97174269E-25
  -1.44600002E-02     8.97314686E-25
  -1.44499997E-02     8.97906923E-25
  -1.44400001E-02     8.99005116E-25
  -1.44300004E-02     9.00594375E-25
  -1.44199999E-02     9.02589306E-25
  -1.44100003E-02     9.04843180E-25
  -1.43999998E-02     9.07163811E-25
  -1.43900001E-02     9.09336334E-25
  -1.43799996E-02     9.11149432E-25
  -1.43700000E-02     9.12421076E-25
  -1.43600004E-02     9.13021104E-25
  -1.43499998E-02     9.12887786E-25
  -1.43400002E-02     9.12035126E-25
  -1.43299997E-02     9.10550884E-25
  -1.43200001E-02     9.08585536E-25
  -1.43100005E-02     9.06333042E-25
  -1.42999999E-02     9.04006593E-25
  -1.42900003E-02     9.01812278E-25
  -1.42799998E-02     8.99924533E-25
  -1.42700002E-02     8.98465437E-25
  -1.42599996E-02     8.97492771E-25
  -1.42500000E-02     8.96994704E-25
  -1.42400004E-02     8.96895209E-25
  -1.42299999E-02     8.97066688E-25
  -1.42200002E-02     8.97349198E-25
  -1.42099997E-02     8.97573038E-25
  -1.42000001E-02     8.97581912E-25
  -1.41899996E-02     8.97254338E-25
  -1.41799999E-02     8.96519120E-25
  -1.41700003E-02     8.95365115E-25
  -1.41599998E-02     8.93841331E-25
  -1.41500002E-02     8.92052195E-25
  -1.41399996E-02     8.90143053E-25
  -1.41300000E-02     8.88283510E-25
  -1.41200004E-02     8.86645835E-25
  -1.41099999E-02     8.85384742E-25
  -1.41000003E-02     8.84619251E-25
  -1.40899997E-02     8.84418486E-25
  -1.40800001E-02     8.84793590E-25
  -1.40699996E-02     8.85697033E-25
  -1.40600000E-02     8.87027447E-25
  -1.40500003E-02     8.88641555E-25
  -1.40399998E-02     8.90369850E-25
  -1.40300002E-02     8.92035234E-25
  -1.40199997E-02     8.93471750E-25
  -1.40100000E-02     8.94542234E-25
  -1.40000004E-02     8.95151432E-25
  -1.39899999E-02     8.95254871E-25
  -1.39800003E-02     8.94862413E-25
  -1.39699997E-02     8.94034109E-25
  -1.39600001E-02     8.92872709E-25
  -1.39499996E-02     8.91510444E-25
  -1.39400000E-02     8.90092861E-25
  -1.39300004E-02     8.88762349E-25
  -1.39199998E-02     8.87641378E-25
  -1.39100002E-02     8.86819483E-25