  -2.19999999E-02     1.00000002E-24
  -2.19899993E-02     1.00000002E-24
  -2.19800007E-02     1.00000002E-24
  -2.19700001E-02     1.00000012E-24
  -2.19599996E-02     1.00000022E-24
  -2.19500009E-02     1.00000022E-24
  -2.19400004E-02     1.00000022E-24
  -2.19299998E-02     1.00000022E-24
  -2.19199993E-02     1.00000022E-24
  -2.19100006E-02     1.00000022E-24
  -2.19000001E-02     1.00000022E-24
  -2.18899995E-02     1.00000012E-24
  -2.18800008E-02     1.00000002E-24
  -2.18700003E-02     1.00000002E-24
  -2.18599997E-02     1.00000002E-24
  -2.18499992E-02     1.00000002E-24
  -2.18400005E-02     1.00000002E-24
  -2.18300000E-02     1.00000012E-24
  -2.18199994E-02     1.00000022E-24
  -2.18100008E-02     1.00000032E-24
  -2.18000002E-02     1.00000032E-24
  -2.17899997E-02     1.00000032E-24
  -2.17799991E-02     1.00000032E-24
  -2.17700005E-02     1.00000022E-24
  -2.17599999E-02     1.00000012E-24
  -2.17499994E-02     1.00000002E-24
  -2.17400007E-02     9.99999921E-25
  -2.17300002E-02     9.99999822E-25
  -2.17199996E-02     9.99999822E-25
  -2.17099991E-02     9.99999921E-25
  -2.17000004E-02     1.00000012E-24
  -2.16899998E-02     1.00000032E-24
  -2.16799993E-02     1.00000051E-24
  -2.16700006E-02     1.00000071E-24
  -2.16600001E-02     1.00000071E-24
  -2.16499995E-02     1.00000051E-24
  -2.16400009E-02     1.00000041E-24
  -2.16300003E-02     1.00000022E-24
  -2.16199998E-02     9.99999921E-25
  -2.16099992E-02     9.99999527E-25
  -2.16000006E-02     9.99999231E-25
  -2.15900000E-02     9.99999132E-25
  -2.15799995E-02     9.99999132E-25
  -2.15700008E-02     9.99999428E-25
  -2.15600003E-02     9.99999921E-25
  -2.15499997E-02     1.00000061E-24
  -2.15399992E-02     1.00000130E-24
  -2.15300005E-02     1.00000179E-24
  -2.15200000E-02     1.00000199E-24
  -2.15099994E-02     1.00000189E-24
  -2.15000007E-02     1.00000140E-24
  -2.14900002E-02     1.00000041E-24
  -2.14799996E-02     9.99999033E-25
  -2.14699991E-02     9.99997357E-25
  -2.14600004E-02     9.99995878E-25
  -2.14499999E-02     9.99994793E-25
  -2.14399993E-02     9.99994596E-25
  -2.14300007E-02     9.99995582E-25
  -2.14200001E-02     9.99997752E-25
  -2.14099996E-02     1.00000120E-24
  -2.14000009E-02     1.00000534E-24
  -2.13900004E-02     1.00000978E-24
  -2.13799998E-02     1.00001373E-24
  -2.13699993E-02     1.00001649E-24
  -2.13600006E-02     1.00001698E-24
  -2.13500001E-02     1.00001481E-24
  -2.13399995E-02     1.00000949E-24
  -2.13300008E-02     1.00000091E-24
  -2.13200003E-02     9.99989962E-25
  -2.13099997E-02     9.99977833E-25
  -2.12999992E-02     9.99966296E-25
  -2.12900005E-02     9.99957618E-25
  -2.12800000E-02     9.99953674E-25
  -2.12699994E-02     9.99956041E-25
  -2.12600008E-02     9.99965803E-25
  -2.12500002E-02     9.99982665E-25
  -2.12399997E-02     1.00000544E-24
  -2.12299991E-02     1.00003167E-24
  -2.12200005E-02     1.00005800E-24
  -2.12099999E-02     1.00008058E-24
  -2.11999994E-02     1.00009547E-24
  -2.11900007E-02     1.00009942E-24
  -2.11800002E-02     1.00009005E-24
  -2.11699996E-02     1.00006707E-24
  -2.11599991E-02     1.00003157E-24
  -2.11500004E-02     9.99987003E-25
  -2.11399999E-02     9.99938686E-25
  -2.11299993E-02     9.99893030E-25
  -2.11200006E-02     9.99856545E-25
  -2.11100001E-02     9.99835641E-25
  -2.10999995E-02     9.99834655E-25
  -2.10900009E-02     9.99855954E-25
  -2.10800003E-02     9.99898552E-25
  -2.10699998E-02     9.99958506E-25
  -2.10599992E-02     1.00002881E-24
  -2.10500006E-02     1.00010050E-24
  -2.10400000E-02     1.00016341E-24
  -2.10299995E-02     1.00020769E-24
  -2.10200008E-02     1.00022563E-24
  -2.10100003E-02     1.00021242E-24
  -2.09999997E-02     1.00016765E-24
  -2.09899992E-02     1.00009537E-24
  -2.09800005E-02     1.00000416E-24
  -2.09700000E-02     9.99905849E-25
  -2.09599994E-02     9.99814243E-25
  -2.09500007E-02     9.99743245E-25
  -2.09400002E-02     9.99704986E-25
  -2.09299996E-02     9.99707747E-25
  -2.09199991E-02     9.99754585E-25
  -2.09100004E-02     9.99842740E-25
  -2.08999999E-02     9.99963338E-25
  -2.08899993E-02     1.00010208E-24
  -2.08800007E-02     1.00024102E-24
  -2.08700001E-02     1.00036142E-24
  -2.08599996E-02     1.00044504E-24
  -2.08500009E-02     1.00047787E-24
  -2.08400004E-02     1.00045135E-24
  -2.08299998E-02     1.00036457E-24
  -2.08199993E-02     1.00022455E-24
  -2.08100006E-02     1.00004587E-24
  -2.08000001E-02     9.99848854E-25
  -2.07899995E-02     9.99657851E-25
  -2.07800008E-02     9.99497318E-25
  -2.07700003E-02     9.99389047E-25
  -2.07599998E-02     9.99348913E-25
  -2.07499992E-02     9.99384609E-25
  -2.07400005E-02     9.99493867E-25
  -2.07300000E-02     9.99664655E-25
  -2.07199994E-02     9.99876070E-25
  -2.07100008E-02     1.00010109E-24
  -2.07000002E-02     1.00030965E-24
  -2.06899997E-02     1.00047314E-24
  -2.06799991E-02     1.00056760E-24
  -2.06700005E-02     1.00057776E-24
  -2.06599999E-02     1.00049907E-24
  -2.06499994E-02     1.00033854E-24
  -2.06400007E-02     1.00011460E-24
  -2.06300002E-02     9.99854968E-25
  -2.06199996E-02     9.99593559E-25
  -2.06099991E-02     9.99366170E-25
  -2.06000004E-02     9.99206130E-25
  -2.05899999E-02     9.99140063E-25
  -2.05799993E-02     9.99184929E-25
  -2.05700006E-02     9.99345068E-25
  -2.05600001E-02     9.99612196E-25
  -2.05499995E-02     9.99965803E-25
  -2.05400009E-02     1.00037571E-24
  -2.05300003E-02     1.00080574E-24
  -2.05199998E-02     1.00121753E-24
  -2.05099992E-02     1.00157439E-24
  -2.05000006E-02     1.00184605E-24
  -2.04900000E-02     1.00201083E-24
  -2.04799995E-02     1.00205697E-24
  -2.04700008E-02     1.00198312E-24
  -2.04600003E-02     1.00179724E-24
  -2.04499997E-02     1.00151315E-24
  -2.04399992E-02     1.00114840E-24
  -2.04300005E-02     1.00071995E-24
  -2.04200000E-02     1.00024092E-24
  -2.04099994E-02     9.99718298E-25
  -2.04000007E-02     9.99151008E-25
  -2.03900002E-02     9.98530076E-25
  -2.03799997E-02     9.97839034E-25
  -2.03699991E-02     9.97056286E-25
  -2.03600004E-02     9.96157281E-25
  -2.03499999E-02     9.95117957E-25
  -2.03399993E-02     9.93917014E-25
  -2.03300007E-02     9.92538874E-25
  -2.03200001E-02     9.90975944E-25
  -2.03099996E-02     9.89229011E-25
  -2.03000009E-02     9.87308924E-25
  -2.02900004E-02     9.85235107E-25
  -2.02799998E-02     9.83036059E-25
  -2.02699993E-02     9.80747376E-25
  -2.02600006E-02     9.78410080E-25
  -2.02500001E-02     9.76068839E-25
  -2.02399995E-02     9.73770197E-25
  -2.02300008E-02     9.71559513E-25
  -2.02200003E-02     9.69480174E-25
  -2.02099998E-02     9.67570441E-25
  -2.01999992E-02     9.65862557E-25
  -2.01900005E-02     9.64380780E-25
  -2.01800000E-02     9.63140790E-25
  -2.01699995E-02     9.62148994E-25
  -2.01600008E-02     9.61402732E-25
  -2.01500002E-02     9.60891353E-25
  -2.01399997E-02     9.60597108E-25
  -2.01299991E-02     9.60497908E-25
  -2.01200005E-02     9.60569695E-25
  -2.01099999E-02     9.60788998E-25
  -2.00999994E-02     9.61135998E-25
  -2.00900007E-02     9.61596003E-25
  -2.00800002E-02     9.62161222E-25
  -2.00699996E-02     9.62831359E-25
  -2.00599991E-02     9.63612134E-25
  -2.00500004E-02     9.64512816E-25
  -2.00399999E-02     9.65543167E-25
  -2.00299993E-02     9.66709005E-25
  -2.00200006E-02     9.68007667E-25
  -2.00100001E-02     9.69424264E-25
  -1.99999996E-02     9.70928622E-25
  -1.99900009E-02     9.72474197E-25
  -1.99800003E-02     9.73999263E-25
  -1.99699998E-02     9.75429369E-25
  -1.99599992E-02     9.76683461E-25
  -1.99500006E-02     9.77679595E-25
  -1.99400000E-02     9.78343618E-25
  -1.99299995E-02     9.78615677E-25
  -1.99200008E-02     9.78457806E-25
  -1.99100003E-02     9.77857680E-25
  -1.98999997E-02     9.76830682E-25
  -1.98899992E-02     9.75419212E-25
  -1.98800005E-02     9.73688057E-25
  -1.98700000E-02     9.71717285E-25
  -1.98599994E-02     9.69593968E-25
  -1.98500007E-02     9.67402019E-25
  -1.98400002E-02     9.65213029E-25
  -1.98299997E-02     9.63078371E-25
  -1.98199991E-02     9.61024867E-25
  -1.98100004E-02     9.59052321E-25
  -1.97999999E-02     9.57136375E-25
  -1.97899994E-02     9.55234135E-25
  -1.97800007E-02     9.53292749E-25
  -1.97700001E-02     9.51259755E-25
  -1.97599996E-02     9.49095023E-25
  -1.97500009E-02     9.46780012E-25
  -1.97400004E-02     9.44324879E-25
  -1.97299998E-02     9.41772914E-25
  -1.97199993E-02     9.39199058E-25
  -1.97100006E-02     9.36704779E-25
  -1.97000001E-02     9.34408799E-25
  -1.96899995E-02     9.32435168E-25
  -1.96800008E-02     9.30899058E-25
  -1.96700003E-02     9.29893458E-25
  -1.96599998E-02     9.29477827E-25
  -1.96499992E-02     9.29670506E-25
  -1.96400005E-02     9.30445266E-25
  -1.96300000E-02     9.31734363E-25
  -1.96199995E-02     9.33435049E-25
  -1.96100008E-02     9.35422091E-25
  -1.96000002E-02     9.37561284E-25
  -1.95899997E-02     9.39724834E-25
  -1.95799991E-02     9.41804666E-25
  -1.95700005E-02     9.43723669E-25
  -1.95599999E-02     9.45441808E-25
  -1.95499994E-02     9.46957111E-25
  -1.95400007E-02     9.48301330E-25
  -1.95300002E-02     9.49530770E-25
  -1.95199996E-02     9.50713667E-25
  -1.95099991E-02     9.51915792E-25
  -1.95000004E-02     9.53186351E-25
  -1.94899999E-02     9.54546347E-25
  -1.94799993E-02     9.55980891E-25
  -1.94700006E-02     9.57437325E-25
  -1.94600001E-02     9.58828284E-25
  -1.94499996E-02     9.60040073E-25
  -1.94400009E-02     9.60945784E-25
  -1.94300003E-02     9.61420481E-25
  -1.94199998E-02     9.61356386E-25
  -1.94099993E-02     9.60677177E-25
  -1.94000006E-02     9.59348045E-25
  -1.93900000E-02     9.57381020E-25
  -1.93799995E-02     9.54834676E-25
  -1.93700008E-02     9.51807521E-25
  -1.93600003E-02     9.48427942E-25
  -1.93499997E-02     9.44839512E-25
  -1.93399992E-02     9.41186100E-25
  -1.93300005E-02     9.37597769E-25
  -1.93200000E-02     9.34179142E-25
  -1.93099994E-02     9.31002399E-25
  -1.93000007E-02     9.28104321E-25
  -1.92900002E-02     9.25489740E-25
  -1.92799997E-02     9.23137949E-25
  -1.92699991E-02     9.21012265E-25
  -1.92600004E-02     9.19071272E-25
  -1.92499999E-02     9.17280262E-25
  -1.92399994E-02     9.15619414E-25
  -1.92300007E-02     9.14089221E-25
  -1.92200001E-02     9.12713152E-25
  -1.92099996E-02     9.11533805E-25
  -1.92000009E-02     9.10608077E-25
  -1.91900004E-02     9.09998189E-25
  -1.91799998E-02     9.09762615E-25
  -1.91699993E-02     9.09946715E-25
  -1.91600006E-02     9.10575733E-25
  -1.91500001E-02     9.11649768E-25
  -1.91399995E-02     9.13141898E-25
  -1.91300008E-02     9.15000750E-25
  -1.91200003E-02     9.17154538E-25
  -1.91099998E-02     9.19518458E-25
  -1.90999992E-02     9.22003074E-25
  -1.90900005E-02     9.24521611E-25
  -1.90800000E-02     9.26997056E-25
  -1.90699995E-02     9.29367090E-25
  -1.90600008E-02     9.31585959E-25
  -1.90500002E-02     9.33624967E-25
  -1.90399997E-02     9.35469521E-25
  -1.90299992E-02     9.37116761E-25
  -1.90200005E-02     9.38570928E-25
  -1.90099999E-02     9.39839909E-25
  -1.89999994E-02     9.40932087E-25
  -1.89900007E-02     9.41854364E-25
  -1.89800002E-02     9.42610882E-25
  -1.89699996E-02     9.43204500E-25
  -1.89599991E-02     9.43637091E-25
  -1.89500004E-02     9.43911713E-25
  -1.89399999E-02     9.44033198E-25
  -1.89299993E-02     9.44008447E-25
  -1.89200006E-02     9.43847323E-25
  -1.89100001E-02     9.43560867E-25
  -1.88999996E-02     9.43160816E-25
  -1.88900009E-02     9.42657523E-25
  -1.88800003E-02     9.42060355E-25
  -1.88699998E-02     9.41377202E-25
  -1.88599993E-02     9.40614472E-25
  -1.88500006E-02     9.39779956E-25
  -1.88400000E-02     9.38884204E-25
  -1.88299995E-02     9.37942797E-25
  -1.88200008E-02     9.36979697E-25
  -1.88100003E-02     9.36028035E-25
  -1.87999997E-02     9.35131396E-25
  -1.87899992E-02     9.34342140E-25
  -1.87800005E-02     9.33718250E-25
  -1.87700000E-02     9.33319777E-25
  -1.87599994E-02     9.33201940E-25
  -1.87500007E-02     9.33409214E-25
  -1.87400002E-02     9.33969009E-25
  -1.87299997E-02     9.34886553E-25
  -1.87199991E-02     9.36142222E-25
  -1.87100004E-02     9.37690362E-25
  -1.86999999E-02     9.39462341E-25
  -1.86899994E-02     9.41372370E-25
  -1.86800007E-02     9.43325195E-25
  -1.86700001E-02     9.45226350E-25
  -1.86599996E-02     9.46993004E-25
  -1.86500009E-02     9.48563133E-25
  -1.86400004E-02     9.49902915E-25
  -1.86299998E-02     9.51010870E-25
  -1.86199993E-02     9.51917468E-25
  -1.86100006E-02     9.52679902E-25
  -1.86000001E-02     9.53374692E-25
  -1.85899995E-02     9.54085455E-25
  -1.85800008E-02     9.54891474E-25
  -1.85700003E-02     9.55854279E-25
  -1.85599998E-02     9.57007692E-25
  -1.85499992E-02     9.58351023E-25
  -1.85400005E-02     9.59846802E-25
  -1.85300000E-02     9.61422848E-25
  -1.85199995E-02     9.62980158E-25
  -1.85100008E-02     9.64403953E-25
  -1.85000002E-02     9.65578370E-25
  -1.84899997E-02     9.66399771E-25
  -1.84799992E-02     9.66791243E-25
  -1.84700005E-02     9.66712752E-25
  -1.84599999E-02     9.66167057E-25
  -1.84499994E-02     9.65199914E-25
  -1.84400007E-02     9.63895927E-25
  -1.84300002E-02     9.62368593E-25
  -1.84199996E-02     9.60747583E-25
  -1.84099991E-02     9.59162564E-25
  -1.84000004E-02     9.57728316E-25
  -1.83899999E-02     9.56531713E-25
  -1.83799993E-02     9.55621762E-25
  -1.83700006E-02     9.55005859E-25
  -1.83600001E-02     9.54650871E-25
  -1.83499996E-02     9.54489648E-25
  -1.83400009E-02     9.54432160E-25
  -1.83300003E-02     9.54379996E-25
  -1.83199998E-02     9.54241650E-25
  -1.83099993E-02     9.53946320E-25
  -1.83000006E-02     9.53455747E-25
  -1.82900000E-02     9.52771016E-25
  -1.82799995E-02     9.51934527E-25
  -1.82700008E-02     9.51024872E-25
  -1.82600003E-02     9.50147757E-25
  -1.82499997E-02     9.49422104E-25
  -1.82399992E-02     9.48963480E-25
  -1.82300005E-02     9.48868619E-25
  -1.82200000E-02     9.49200631E-25
  -1.82099994E-02     9.49978645E-25
  -1.82000007E-02     9.51173277E-25
  -1.81900002E-02     9.52707019E-25
  -1.81799997E-02     9.54462235E-25
  -1.81699991E-02     9.56293378E-25
  -1.81600004E-02     9.58043663E-25
  -1.81499999E-02     9.59563305E-25
  -1.81399994E-02     9.60728058E-25
  -1.81300007E-02     9.61454106E-25
  -1.81200001E-02     9.61708415E-25
  -1.81099996E-02     9.61513172E-25
  -1.81000009E-02     9.60943220E-25
  -1.80900004E-02     9.60116790E-25
  -1.80799998E-02     9.59181102E-25
  -1.80699993E-02     9.58293831E-25
  -1.80600006E-02     9.57603479E-25
  -1.80500001E-02     9.57231137E-25
  -1.80399995E-02     9.57254605E-25
  -1.80300009E-02     9.57698340E-25
  -1.80200003E-02     9.58530588E-25
  -1.80099998E-02     9.59667139E-25
  -1.79999992E-02     9.60982072E-25
  -1.79900005E-02     9.62324023E-25
  -1.79800000E-02     9.63535713E-25
  -1.79699995E-02     9.64473767E-25
  -1.79600008E-02     9.65028238E-25
  -1.79500002E-02     9.65136805E-25
  -1.79399997E-02     9.64792960E-25
  -1.79299992E-02     9.64048275E-25
  -1.79200005E-02     9.63005007E-25
  -1.79099999E-02     9.61804459E-25
  -1.78999994E-02     9.60609138E-25
  -1.78900007E-02     9.59581942E-25
  -1.78800002E-02     9.58865854E-25
  -1.78699996E-02     9.58566481E-25
  -1.78599991E-02     9.58738058E-25
  -1.78500004E-02     9.59377430E-25
  -1.78399999E-02     9.60424939E-25
  -1.78299993E-02     9.61771524E-25
  -1.78200006E-02     9.63273811E-25
  -1.78100001E-02     9.64771069E-25
  -1.77999996E-02     9.66106414E-25
  -1.77900009E-02     9.67145935E-25
  -1.77800003E-02     9.67794576E-25
  -1.77699998E-02     9.68008554E-25
  -1.77599993E-02     9.67799901E-25
  -1.77500006E-02     9.67234189E-25
  -1.77400000E-02     9.66421859E-25
  -1.77299995E-02     9.65504611E-25
  -1.77200008E-02     9.64636470E-25
  -1.77100003E-02     9.63965938E-25
  -1.76999997E-02     9.63616275E-25
  -1.76899992E-02     9.63671101E-25
  -1.76800005E-02     9.64163646E-25
  -1.76700000E-02     9.65072809E-25
  -1.76599994E-02     9.66326111E-25
  -1.76500008E-02     9.67807296E-25
  -1.76400002E-02     9.69371410E-25
  -1.76299997E-02     9.70861864E-25
  -1.76199991E-02     9.72129169E-25
  -1.76100004E-02     9.73049178E-25
  -1.75999999E-02     9.73536793E-25
  -1.75899994E-02     9.73556515E-25
  -1.75800007E-02     9.73125106E-25
  -1.75700001E-02     9.72308931E-25
  -1.75599996E-02     9.71215274E-25
  -1.75500009E-02     9.69977157E-25
  -1.75400004E-02     9.68737166E-25
  -1.75299998E-02     9.67628126E-25
  -1.75199993E-02     9.66757125E-25
  -1.75100006E-02     9.66191019E-25
  -1.75000001E-02     9.65948839E-25
  -1.74899995E-02     9.65999523E-25
  -1.74800009E-02     9.66266059E-25
  -1.74700003E-02     9.66635838E-25
  -1.74599998E-02     9.66975147E-25
  -1.74499992E-02     9.67146527E-25
  -1.74400005E-02     9.67026423E-25
  -1.74300000E-02     9.66520960E-25
  -1.74199995E-02     9.65578271E-25
  -1.74100008E-02     9.64195299E-25
  -1.74000002E-02     9.62418193E-25
  -1.73899997E-02     9.60336685E-25
  -1.73799992E-02     9.58073246E-25
  -1.73700005E-02     9.55767603E-25
  -1.73599999E-02     9.53559186E-25
  -1.73499994E-02     9.51570369E-25
  -1.73400007E-02     9.49890687E-25
  -1.73300002E-02     9.48566880E-25
  -1.73199996E-02     9.47596877E-25
  -1.73099991E-02     9.46930684E-25
  -1.73000004E-02     9.46477286E-25
  -1.72899999E-02     9.46116481E-25
  -1.72799993E-02     9.45714556E-25
  -1.72700007E-02     9.45141350E-25
  -1.72600001E-02     9.44287310E-25
  -1.72499996E-02     9.43077592E-25
  -1.72400009E-02     9.41482712E-25
  -1.72300003E-02     9.39523477E-25
  -1.72199998E-02     9.37269800E-25
  -1.72099993E-02     9.34834981E-25
  -1.72000006E-02     9.32363480E-25
  -1.71900000E-02     9.30015534E-25
  -1.71799995E-02     9.27950198E-25
  -1.71700008E-02     9.26307691E-25
  -1.71600003E-02     9.25193523E-25
  -1.71499997E-02     9.24666564E-25
  -1.71399992E-02     9.24732335E-25
  -1.71300005E-02     9.25341336E-25
  -1.71200000E-02     9.26394564E-25
  -1.71099994E-02     9.27754757E-25
  -1.71000008E-02     9.29260989E-25
  -1.70900002E-02     9.30747893E-25
  -1.70799997E-02     9.32062924E-25
  -1.70699991E-02     9.33084795E-25
  -1.70600004E-02     9.33736295E-25
  -1.70499999E-02     9.33991787E-25
  -1.70399994E-02     9.33879572E-25
  -1.70300007E-02     9.33475478E-25
  -1.70200001E-02     9.32892313E-25
  -1.70099996E-02     9.32263097E-25
  -1.70000009E-02     9.31722629E-25
  -1.69900004E-02     9.31388053E-25
  -1.69799998E-02     9.31341806E-25
  -1.69699993E-02     9.31619584E-25
  -1.69600006E-02     9.32204229E-25
  -1.69500001E-02     9.33026419E-25
  -1.69399995E-02     9.33972953E-25
  -1.69300009E-02     9.34900654E-25
  -1.69200003E-02     9.35654706E-25
  -1.69099998E-02     9.36089467E-25
  -1.68999992E-02     9.36088284E-25
  -1.68900006E-02     9.35579666E-25
  -1.68800000E-02     9.34548723E-25
  -1.68699995E-02     9.33040618E-25
  -1.68600008E-02     9.31156030E-25
  -1.68500002E-02     9.29039910E-25
  -1.68399997E-02     9.26863246E-25
  -1.68299992E-02     9.24801854E-25
  -1.68200005E-02     9.23013407E-25
  -1.68099999E-02     9.21617419E-25
  -1.67999994E-02     9.20680549E-25
  -1.67900007E-02     9.20207232E-25
  -1.67800002E-02     9.20140672E-25
  -1.67699996E-02     9.20371118E-25
  -1.67599991E-02     9.20752138E-25
  -1.67500004E-02     9.21120536E-25
  -1.67399999E-02     9.21320906E-25
  -1.67299993E-02     9.21227229E-25
  -1.67200007E-02     9.20761604E-25
  -1.67100001E-02     9.19905493E-25
  -1.66999996E-02     9.18703367E-25
  -1.66900009E-02     9.17257287E-25
  -1.66800003E-02     9.15713782E-25
  -1.66699998E-02     9.14244035E-25
  -1.66599993E-02     9.13021399E-25
  -1.66500006E-02     9.12197336E-25
  -1.66400000E-02     9.11880904E-25
  -1.66299995E-02     9.12123281E-25
  -1.66200008E-02     9.12908888E-25
  -1.66100003E-02     9.14155979E-25
  -1.65999997E-02     9.15725516E-25
  -1.65899992E-02     9.17438232E-25
  -1.65800005E-02     9.19096220E-25
  -1.65700000E-02     9.20507985E-25
  -1.65599994E-02     9.21513093E-25
  -1.65500008E-02     9.22002482E-25
  -1.65400002E-02     9.21933555E-25
  -1.65299997E-02     9.21336486E-25
  -1.65199991E-02     9.20311263E-25
  -1.65100005E-02     9.19015165E-25
  -1.64999999E-02     9.17643335E-25
  -1.64899994E-02     9.16402654E-25
  -1.64800007E-02     9.15484420E-25
  -1.64700001E-02     9.15037333E-25
  -1.64599996E-02     9.15146098E-25
  -1.64500009E-02     9.15817221E-25
  -1.64400004E-02     9.16975367E-25
  -1.64299998E-02     9.18469963E-25
  -1.64199993E-02     9.20091565E-25
  -1.64100006E-02     9.21597599E-25
  -1.64000001E-02     9.22741250E-25
  -1.63899995E-02     9.23303215E-25
  -1.63800009E-02     9.23120002E-25
  -1.63700003E-02     9.22106513E-25
  -1.63599998E-02     9.20268763E-25
  -1.63499992E-02     9.17705557E-25
  -1.63400006E-02     9.14598332E-25
  -1.63300000E-02     9.11190059E-25
  -1.63199995E-02     9.07756049E-25
  -1.63100008E-02     9.04570135E-25
  -1.63000003E-02     9.01871048E-25
  -1.62899997E-02     8.99832927E-25
  -1.62799992E-02     8.98542942E-25
  -1.62700005E-02     8.97991134E-25
  -1.62599999E-02     8.98072288E-25
  -1.62499994E-02     8.98600135E-25
  -1.62400007E-02     8.99332691E-25
  -1.62300002E-02     9.00005392E-25
  -1.62199996E-02     9.00367577E-25
  -1.62099991E-02     9.00217990E-25
  -1.62000004E-02     8.99434158E-25
  -1.61899999E-02     8.97990740E-25
  -1.61799993E-02     8.95965734E-25
  -1.61700007E-02     8.93531112E-25
  -1.61600001E-02     8.90931519E-25
  -1.61499996E-02     8.88452129E-25
  -1.61400009E-02     8.86379989E-25
  -1.61300004E-02     8.84964970E-25
  -1.61199998E-02     8.84384762E-25
  -1.61099993E-02     8.84719634E-25
  -1.61000006E-02     8.85940396E-25
  -1.60900000E-02     8.87911168E-25
  -1.60799995E-02     8.90407124E-25
  -1.60700008E-02     8.93145063E-25
  -1.60600003E-02     8.95821372E-25
  -1.60499997E-02     8.98153935E-25
  -1.60399992E-02     8.99919110E-25
  -1.60300005E-02     9.00981508E-25
  -1.60200000E-02     9.01310661E-25
  -1.60099994E-02     9.00982692E-25
  -1.60000008E-02     9.00166911E-25
  -1.59900002E-02     8.99099385E-25
  -1.59799997E-02     8.98047242E-25
  -1.59699991E-02     8.97269721E-25
  -1.59600005E-02     8.96978434E-25
  -1.59499999E-02     8.97307487E-25
  -1.59399994E-02     8.98292380E-25
  -1.59300007E-02     8.99864580E-25
  -1.59200002E-02     9.01860300E-25
  -1.59099996E-02     9.04043275E-25
  -1.59000009E-02     9.06137701E-25
  -1.58900004E-02     9.07866193E-25
  -1.58799998E-02     9.08988348E-25
  -1.58699993E-02     9.09334757E-25
  -1.58600006E-02     9.08831365E-25
  -1.58500001E-02     9.07511009E-25
  -1.58399995E-02     9.05510458E-25
  -1.58300009E-02     9.03054536E-25
  -1.58200003E-02     9.00426841E-25
  -1.58099998E-02     8.97933942E-25
  -1.57999992E-02     8.95866534E-25
  -1.57900006E-02     8.94462461E-25
  -1.57800000E-02     8.93877323E-25
  -1.57699995E-02     8.94166638E-25
  -1.57600008E-02     8.95280509E-25
  -1.57500003E-02     8.97072703E-25
  -1.57399997E-02     8.99321942E-25
  -1.57299992E-02     9.01761593E-25
  -1.57200005E-02     9.04114470E-25
  -1.57099999E-02     9.06128037E-25
  -1.56999994E-02     9.07605475E-25
  -1.56900007E-02     9.08427665E-25
  -1.56800002E-02     9.08565321E-25
  -1.56699996E-02     9.08078200E-25
  -1.56599991E-02     9.07104252E-25
  -1.56500004E-02     9.05837440E-25
  -1.56399999E-02     9.04501899E-25
  -1.56299993E-02     9.03322059E-25
  -1.56199997E-02     9.02494840E-25
  -1.56100001E-02     9.02165885E-25
  -1.55999996E-02     9.02412995E-25
  -1.55900000E-02     9.03238144E-25
  -1.55800004E-02     9.04568065E-25
  -1.55699998E-02     9.06264707E-25
  -1.55600002E-02     9.08141999E-25
  -1.55499997E-02     9.09989314E-25
  -1.55400001E-02     9.11596618E-25
  -1.55300004E-02     9.12780205E-25
  -1.55199999E-02     9.13405476E-25
  -1.55100003E-02     9.13403603E-25
  -1.54999997E-02     9.12780895E-25
  -1.54900001E-02     9.11618608E-25
  -1.54799996E-02     9.10065340E-25
  -1.54700000E-02     9.08319295E-25
  -1.54600004E-02     9.06605298E-25
  -1.54499998E-02     9.05146497E-25
  -1.54400002E-02     9.04137642E-25
  -1.54299997E-02     9.03718560E-25
  -1.54200001E-02     9.03955317E-25
  -1.54100005E-02     9.04829868E-25
  -1.53999999E-02     9.06240450E-25
  -1.53900003E-02     9.08011837E-25
  -1.53799998E-02     9.09915161E-25
  -1.53700002E-02     9.11695620E-25
  -1.53599996E-02     9.13102849E-25
  -1.53500000E-02     9.13923560E-25
  -1.53400004E-02     9.14008757E-25
  -1.53299998E-02     9.13295134E-25
  -1.53200002E-02     9.11816020E-25
  -1.53099997E-02     9.09700985E-25
  -1.53000001E-02     9.07162431E-25
  -1.52899995E-02     9.04471429E-25
  -1.52799999E-02     9.01925381E-25
  -1.52700003E-02     8.99809951E-25
  -1.52599998E-02     8.98362293E-25
  -1.52500002E-02     8.97738698E-25
  -1.52399996E-02     8.97991134E-25
  -1.52300000E-02     8.99057674E-25
  -1.52200004E-02     9.00766741E-25
  -1.52099999E-02     9.02857025E-25
  -1.52000003E-02     9.05008939E-25
  -1.51899997E-02     9.06887217E-25
  -1.51800001E-02     9.08184203E-25
  -1.51699996E-02     9.08663830E-25
  -1.51600000E-02     9.08195050E-25
  -1.51500003E-02     9.06773325E-25
  -1.51399998E-02     9.04524381E-25
  -1.51300002E-02     9.01692174E-25
  -1.51199996E-02     8.98609798E-25
  -1.51100000E-02     8.95659458E-25
  -1.51000004E-02     8.93223061E-25
  -1.50899999E-02     8.91633901E-25
  -1.50800003E-02     8.91132284E-25
  -1.50699997E-02     8.91832497E-25
  -1.50600001E-02     8.93705351E-25
  -1.50499996E-02     8.96577692E-25
  -1.50400000E-02     9.00151331E-25
  -1.50300004E-02     9.04037457E-25
  -1.50199998E-02     9.07802887E-25
  -1.50100002E-02     9.11022919E-25
  -1.49999997E-02     9.13334380E-25
  -1.49900001E-02     9.14480891E-25
  -1.49800004E-02     9.14346784E-25
  -1.49699999E-02     9.12972983E-25
  -1.49600003E-02     9.10554434E-25
  -1.49499997E-02     9.07417332E-25
  -1.49400001E-02     9.03980166E-25
  -1.49299996E-02     9.00702252E-25
  -1.49200000E-02     8.98026041E-25
  -1.49100004E-02     8.96321806E-25
  -1.48999998E-02     8.95839417E-25
  -1.48900002E-02     8.96676300E-25
  -1.48799997E-02     8.98763626E-25
  -1.48700001E-02     9.01873710E-25
  -1.48600005E-02     9.05647128E-25
  -1.48499999E-02     9.09637679E-25
  -1.48400003E-02     9.13367611E-25
  -1.48299998E-02     9.16388455E-25
  -1.48200002E-02     9.18337730E-25
  -1.48099996E-02     9.18986371E-25
  -1.48000000E-02     9.18269987E-25
  -1.47900004E-02     9.16299314E-25
  -1.47799999E-02     9.13348777E-25
  -1.47700002E-02     9.09824639E-25
  -1.47599997E-02     9.06214713E-25
  -1.47500001E-02     9.03028405E-25
  -1.47399995E-02     9.00732228E-25
  -1.47299999E-02     8.99688960E-25
  -1.47200003E-02     9.00109817E-25
  -1.47099998E-02     9.02024974E-25
  -1.47000002E-02     9.05276462E-25
  -1.46899996E-02     9.09535423E-25
  -1.46800000E-02     9.14341755E-25
  -1.46700004E-02     9.19161991E-25
  -1.46599999E-02     9.23456649E-25
  -1.46500003E-02     9.26750636E-25
  -1.46399997E-02     9.28694389E-25
  -1.46300001E-02     9.29110711E-25
  -1.46199996E-02     9.28017251E-25
  -1.46100000E-02     9.25625326E-25
  -1.46000003E-02     9.22311124E-25
  -1.45899998E-02     9.18565218E-25
  -1.45800002E-02     9.14927287E-25
  -1.45699997E-02     9.11912853E-25
  -1.45600000E-02     9.09944349E-25
  -1.45500004E-02     9.09293243E-25
  -1.45399999E-02     9.10043252E-25
  -1.45300003E-02     9.12078316E-25
  -1.45199997E-02     9.15097583E-25
  -1.45100001E-02     9.18655148E-25
  -1.44999996E-02     9.22220701E-25
  -1.44900000E-02     9.25249828E-25
  -1.44800004E-02     9.27258367E-25
  -1.44699998E-02     9.27888272E-25
  -1.44600002E-02     9.26957515E-25
  -1.44499997E-02     9.24485323E-25
  -1.44400001E-02     9.20693170E-25
  -1.44300004E-02     9.15976670E-25
  -1.44199999E-02     9.10854793E-25
  -1.44100003E-02     9.05903014E-25
  -1.43999998E-02     9.01676791E-25
  -1.43900001E-02     8.98639479E-25
  -1.43799996E-02     8.97099918E-25
  -1.43700000E-02     8.97172296E-25
  -1.43600004E-02     8.98759978E-25
  -1.43499998E-02     9.01567829E-25
  -1.43400002E-02     9.05140679E-25
  -1.43299997E-02     9.08921492E-25
  -1.43200001E-02     9.12324145E-25
  -1.43100005E-02     9.14809057E-25
  -1.42999999E-02     9.15951722E-25
  -1.42900003E-02     9.15496648E-25
  -1.42799998E-02     9.13389206E-25
  -1.42700002E-02     9.09781055E-25
  -1.42599996E-02     9.05009728E-25
  -1.42500000E-02     8.99553374E-25
  -1.42400004E-02     8.93970507E-25
  -1.42299999E-02     8.88828219E-25
  -1.42200002E-02     8.84631380E-25
  -1.42099997E-02     8.81760715E-25
  -1.42000001E-02     8.80426160E-25
  -1.41899996E-02     8.80643885E-25
  -1.41799999E-02     8.82236694E-25
  -1.41700003E-02     8.84859558E-25
  -1.41599998E-02     8.88045866E-25
  -1.41500002E-02     8.91267672E-25
  -1.41399996E-02     8.94004527E-25
  -1.41300000E-02     8.95808652E-25
  -1.41200004E-02     8.96362728E-25
  -1.41099999E-02     8.95518844E-25
  -1.41000003E-02     8.93316936E-25
  -1.40899997E-02     8.89979167E-25
  -1.40800001E-02     8.85881626E-25
  -1.40699996E-02     8.81506801E-25
  -1.40600000E-02     8.77383129E-25
  -1.40500003E-02     8.74018834E-25
  -1.40399998E-02     8.71838916E-25
  -1.40300002E-02     8.71132096E-25
  -1.40199997E-02     8.72015226E-25
  -1.40100000E-02     8.74418195E-25
  -1.40000004E-02     8.78092808E-25
  -1.39899999E-02     8.82642267E-25
  -1.39800003E-02     8.87569690E-25
  -1.39699997E-02     8.92337565E-25
  -1.39600001E-02     8.96433134E-25
  -1.39499996E-02     8.99429819E-25
  -1.39400000E-02     9.01037715E-25
  -1.39300004E-02     9.01137604E-25
  -1.39199998E-02     8.99793681E-25
  -1.39100002E-02     8.97243392E-25