  -2.19999999E-02     1.00000002E-24
  -2.19899993E-02     1.00000002E-24
  -2.19800007E-02     1.00000002E-24
  -2.19700001E-02     1.00000002E-24
  -2.19599996E-02     1.00000002E-24
  -2.19500009E-02     1.00000002E-24
  -2.19400004E-02     1.00000002E-24
  -2.19299998E-02     1.00000002E-24
  -2.19199993E-02     1.00000002E-24
  -2.19100006E-02     1.00000002E-24
  -2.19000001E-02     1.00000002E-24
  -2.18899995E-02     1.00000002E-24
  -2.18800008E-02     1.00000002E-24
  -2.18700003E-02     1.00000002E-24
  -2.18599997E-02     1.00000002E-24
  -2.18499992E-02     1.00000002E-24
  -2.18400005E-02     1.00000002E-24
  -2.18300000E-02     1.00000002E-24
  -2.18199994E-02     1.00000002E-24
  -2.18100008E-02     1.00000002E-24
  -2.18000002E-02     1.00000002E-24
  -2.17899997E-02     1.00000002E-24
  -2.17799991E-02     1.00000002E-24
  -2.17700005E-02     1.00000002E-24
  -2.17599999E-02     1.00000002E-24
  -2.17499994E-02     1.00000002E-24
  -2.17400007E-02     1.00000002E-24
  -2.17300002E-02     1.00000002E-24
  -2.17199996E-02     1.00000002E-24
  -2.17099991E-02     1.00000002E-24
  -2.17000004E-02     1.00000002E-24
  -2.16899998E-02     1.00000002E-24
  -2.16799993E-02     1.00000002E-24
  -2.16700006E-02     1.00000002E-24
  -2.16600001E-02     1.00000002E-24
  -2.16499995E-02     1.00000002E-24
  -2.16400009E-02     1.00000002E-24
  -2.16300003E-02     1.00000002E-24
  -2.16199998E-02     1.00000002E-24
  -2.16099992E-02     1.00000002E-24
  -2.16000006E-02     1.00000002E-24
  -2.15900000E-02     1.00000002E-24
  -2.15799995E-02     1.00000002E-24
  -2.15700008E-02     1.00000002E-24
  -2.15600003E-02     1.00000002E-24
  -2.15499997E-02     1.00000002E-24
  -2.15399992E-02     1.00000002E-24
  -2.15300005E-02     1.00000002E-24
  -2.15200000E-02     1.00000002E-24
  -2.15099994E-02     1.00000002E-24
  -2.15000007E-02     1.00000002E-24
  -2.14900002E-02     1.00000002E-24
  -2.14799996E-02     1.00000002E-24
  -2.14699991E-02     1.00000002E-24
  -2.14600004E-02     1.00000002E-24
  -2.14499999E-02     1.00000002E-24
  -2.14399993E-02     1.00000002E-24
  -2.14300007E-02     1.00000002E-24
  -2.14200001E-02     1.00000002E-24
  -2.14099996E-02     1.00000002E-24
  -2.14000009E-02     1.00000002E-24
  -2.13900004E-02     1.00000002E-24
  -2.13799998E-02     1.00000002E-24
  -2.13699993E-02     1.00000002E-24
  -2.13600006E-02     1.00000002E-24
  -2.13500001E-02     1.00000002E-24
  -2.13399995E-02     1.00000002E-24
  -2.13300008E-02     1.00000002E-24
  -2.13200003E-02     1.00000002E-24
  -2.13099997E-02     1.00000002E-24
  -2.12999992E-02     1.00000002E-24
  -2.12900005E-02     1.00000002E-24
  -2.12800000E-02     1.00000002E-24
  -2.12699994E-02     1.00000002E-24
  -2.12600008E-02     1.00000002E-24
  -2.12500002E-02     1.00000002E-24
  -2.12399997E-02     1.00000012E-24
  -2.12299991E-02     1.00000022E-24
  -2.12200005E-02     1.00000032E-24
  -2.12099999E-02     1.00000041E-24
  -2.11999994E-02     1.00000041E-24
  -2.11900007E-02     1.00000041E-24
  -2.11800002E-02     1.00000041E-24
  -2.11699996E-02     1.00000041E-24
  -2.11599991E-02     1.00000041E-24
  -2.11500004E-02     1.00000041E-24
  -2.11399999E-02     1.00000041E-24
  -2.11299993E-02     1.00000041E-24
  -2.11200006E-02     1.00000041E-24
  -2.11100001E-02     1.00000041E-24
  -2.10999995E-02     1.00000041E-24
  -2.10900009E-02     1.00000041E-24
  -2.10800003E-02     1.00000041E-24
  -2.10699998E-02     1.00000041E-24
  -2.10599992E-02     1.00000041E-24
  -2.10500006E-02     1.00000041E-24
  -2.10400000E-02     1.00000041E-24
  -2.10299995E-02     1.00000041E-24
  -2.10200008E-02     1.00000041E-24
  -2.10100003E-02     1.00000041E-24
  -2.09999997E-02     1.00000041E-24
  -2.09899992E-02     1.00000041E-24
  -2.09800005E-02     1.00000041E-24
  -2.09700000E-02     1.00000041E-24
  -2.09599994E-02     1.00000041E-24
  -2.09500007E-02     1.00000041E-24
  -2.09400002E-02     1.00000041E-24
  -2.09299996E-02     1.00000041E-24
  -2.09199991E-02     1.00000041E-24
  -2.09100004E-02     1.00000041E-24
  -2.08999999E-02     1.00000041E-24
  -2.08899993E-02     1.00000032E-24
  -2.08800007E-02     1.00000032E-24
  -2.08700001E-02     1.00000032E-24
  -2.08599996E-02     1.00000032E-24
  -2.08500009E-02     1.00000032E-24
  -2.08400004E-02     1.00000032E-24
  -2.08299998E-02     1.00000032E-24
  -2.08199993E-02     1.00000032E-24
  -2.08100006E-02     1.00000032E-24
  -2.08000001E-02     1.00000032E-24
  -2.07899995E-02     1.00000032E-24
  -2.07800008E-02     1.00000041E-24
  -2.07700003E-02     1.00000041E-24
  -2.07599998E-02     1.00000041E-24
  -2.07499992E-02     1.00000041E-24
  -2.07400005E-02     1.00000041E-24
  -2.07300000E-02     1.00000041E-24
  -2.07199994E-02     1.00000041E-24
  -2.07100008E-02     1.00000041E-24
  -2.07000002E-02     1.00000041E-24
  -2.06899997E-02     1.00000041E-24
  -2.06799991E-02     1.00000041E-24
  -2.06700005E-02     1.00000041E-24
  -2.06599999E-02     1.00000041E-24
  -2.06499994E-02     1.00000041E-24
  -2.06400007E-02     1.00000041E-24
  -2.06300002E-02     1.00000032E-24
  -2.06199996E-02     1.00000022E-24
  -2.06099991E-02     1.00000012E-24
  -2.06000004E-02     1.00000002E-24
  -2.05899999E-02     9.99999921E-25
  -2.05799993E-02     9.99999822E-25
  -2.05700006E-02     9.99999724E-25
  -2.05600001E-02     9.99999625E-25
  -2.05499995E-02     9.99999527E-25
  -2.05400009E-02     9.99999428E-25
  -2.05300003E-02     9.99999329E-25
  -2.05199998E-02     9.99999231E-25
  -2.05099992E-02     9.99999231E-25
  -2.05000006E-02     9.99999231E-25
  -2.04900000E-02     9.99999329E-25
  -2.04799995E-02     9.99999329E-25
  -2.04700008E-02     9.99999329E-25
  -2.04600003E-02     9.99999329E-25
  -2.04499997E-02     9.99999329E-25
  -2.04399992E-02     9.99999329E-25
  -2.04300005E-02     9.99999329E-25
  -2.04200000E-02     9.99999329E-25
  -2.04099994E-02     9.99999329E-25
  -2.04000007E-02     9.99999329E-25
  -2.03900002E-02     9.99999329E-25
  -2.03799997E-02     9.99999329E-25
  -2.03699991E-02     9.99999329E-25
  -2.03600004E-02     9.99999329E-25
  -2.03499999E-02     9.99999329E-25
  -2.03399993E-02     9.99999329E-25
  -2.03300007E-02     9.99999329E-25
  -2.03200001E-02     9.99999428E-25
  -2.03099996E-02     9.99999527E-25
  -2.03000009E-02     9.99999625E-25
  -2.02900004E-02     9.99999724E-25
  -2.02799998E-02     9.99999822E-25
  -2.02699993E-02     9.99999921E-25
  -2.02600006E-02     1.00000002E-24
  -2.02500001E-02     1.00000012E-24
  -2.02399995E-02     1.00000022E-24
  -2.02300008E-02     1.00000032E-24
  -2.02200003E-02     1.00000041E-24
  -2.02099998E-02     1.00000051E-24
  -2.01999992E-02     1.00000061E-24
  -2.01900005E-02     1.00000071E-24
  -2.01800000E-02     1.00000081E-24
  -2.01699995E-02     1.00000091E-24
  -2.01600008E-02     1.00000101E-24
  -2.01500002E-02     1.00000101E-24
  -2.01399997E-02     1.00000101E-24
  -2.01299991E-02     1.00000101E-24
  -2.01200005E-02     1.00000101E-24
  -2.01099999E-02     1.00000101E-24
  -2.00999994E-02     1.00000101E-24
  -2.00900007E-02     1.00000101E-24
  -2.00800002E-02     1.00000101E-24
  -2.00699996E-02     1.00000101E-24
  -2.00599991E-02     1.00000101E-24
  -2.00500004E-02     1.00000101E-24
  -2.00399999E-02     1.00000101E-24
  -2.00299993E-02     1.00000101E-24
  -2.00200006E-02     1.00000091E-24
  -2.00100001E-02     1.00000081E-24
  -1.99999996E-02     1.00000071E-24
  -1.99900009E-02     1.00000071E-24
  -1.99800003E-02     1.00000071E-24
  -1.99699998E-02     1.00000071E-24
  -1.99599992E-02     1.00000071E-24
  -1.99500006E-02     1.00000071E-24
  -1.99400000E-02     1.00000071E-24
  -1.99299995E-02     1.00000071E-24
  -1.99200008E-02     1.00000061E-24
  -1.99100003E-02     1.00000051E-24
  -1.98999997E-02     1.00000041E-24
  -1.98899992E-02     1.00000032E-24
  -1.98800005E-02     1.00000022E-24
  -1.98700000E-02     1.00000012E-24
  -1.98599994E-02     1.00000002E-24
  -1.98500007E-02     9.99999921E-25
  -1.98400002E-02     9.99999822E-25
  -1.98299997E-02     9.99999724E-25
  -1.98199991E-02     9.99999625E-25
  -1.98100004E-02     9.99999527E-25
  -1.97999999E-02     9.99999428E-25
  -1.97899994E-02     9.99999329E-25
  -1.97800007E-02     9.99999329E-25
  -1.97700001E-02     9.99999329E-25
  -1.97599996E-02     9.99999329E-25
  -1.97500009E-02     9.99999329E-25
  -1.97400004E-02     9.99999329E-25
  -1.97299998E-02     9.99999428E-25
  -1.97199993E-02     9.99999428E-25
  -1.97100006E-02     9.99999428E-25
  -1.97000001E-02     9.99999428E-25
  -1.96899995E-02     9.99999428E-25
  -1.96800008E-02     9.99999428E-25
  -1.96700003E-02     9.99999428E-25
  -1.96599998E-02     9.99999428E-25
  -1.96499992E-02     9.99999527E-25
  -1.96400005E-02     9.99999527E-25
  -1.96300000E-02     9.99999527E-25
  -1.96199995E-02     9.99999527E-25
  -1.96100008E-02     9.99999527E-25
  -1.96000002E-02     9.99999527E-25
  -1.95899997E-02     9.99999527E-25
  -1.95799991E-02     9.99999527E-25
  -1.95700005E-02     9.99999527E-25
  -1.95599999E-02     9.99999527E-25
  -1.95499994E-02     9.99999527E-25
  -1.95400007E-02     9.99999527E-25
  -1.95300002E-02     9.99999527E-25
  -1.95199996E-02     9.99999527E-25
  -1.95099991E-02     9.99999527E-25
  -1.95000004E-02     9.99999527E-25
  -1.94899999E-02     9.99999527E-25
  -1.94799993E-02     9.99999527E-25
  -1.94700006E-02     9.99999527E-25
  -1.94600001E-02     9.99999527E-25
  -1.94499996E-02     9.99999527E-25
  -1.94400009E-02     9.99999527E-25
  -1.94300003E-02     9.99999527E-25
  -1.94199998E-02     9.99999527E-25
  -1.94099993E-02     9.99999527E-25
  -1.94000006E-02     9.99999527E-25
  -1.93900000E-02     9.99999527E-25
  -1.93799995E-02     9.99999428E-25
  -1.93700008E-02     9.99999428E-25
  -1.93600003E-02     9.99999428E-25
  -1.93499997E-02     9.99999428E-25
  -1.93399992E-02     9.99999428E-25
  -1.93300005E-02     9.99999428E-25
  -1.93200000E-02     9.99999428E-25
  -1.93099994E-02     9.99999428E-25
  -1.93000007E-02     9.99999428E-25
  -1.92900002E-02     9.99999428E-25
  -1.92799997E-02     9.99999428E-25
  -1.92699991E-02     9.99999527E-25
  -1.92600004E-02     9.99999625E-25
  -1.92499999E-02     9.99999724E-25
  -1.92399994E-02     9.99999822E-25
  -1.92300007E-02     9.99999921E-25
  -1.92200001E-02     1.00000002E-24
  -1.92099996E-02     1.00000012E-24
  -1.92000009E-02     1.00000022E-24
  -1.91900004E-02     1.00000032E-24
  -1.91799998E-02     1.00000051E-24
  -1.91699993E-02     1.00000071E-24
  -1.91600006E-02     1.00000091E-24
  -1.91500001E-02     1.00000110E-24
  -1.91399995E-02     1.00000130E-24
  -1.91300008E-02     1.00000140E-24
  -1.91200003E-02     1.00000150E-24
  -1.91099998E-02     1.00000160E-24
  -1.90999992E-02     1.00000170E-24
  -1.90900005E-02     1.00000179E-24
  -1.90800000E-02     1.00000199E-24
  -1.90699995E-02     1.00000209E-24
  -1.90600008E-02     1.00000209E-24
  -1.90500002E-02     1.00000209E-24
  -1.90399997E-02     1.00000209E-24
  -1.90299992E-02     1.00000209E-24
  -1.90200005E-02     1.00000209E-24
  -1.90099999E-02     1.00000209E-24
  -1.89999994E-02     1.00000209E-24
  -1.89900007E-02     1.00000209E-24
  -1.89800002E-02     1.00000209E-24
  -1.89699996E-02     1.00000219E-24
  -1.89599991E-02     1.00000219E-24
  -1.89500004E-02     1.00000219E-24
  -1.89399999E-02     1.00000219E-24
  -1.89299993E-02     1.00000219E-24
  -1.89200006E-02     1.00000219E-24
  -1.89100001E-02     1.00000219E-24
  -1.88999996E-02     1.00000219E-24
  -1.88900009E-02     1.00000209E-24
  -1.88800003E-02     1.00000199E-24
  -1.88699998E-02     1.00000189E-24
  -1.88599993E-02     1.00000179E-24
  -1.88500006E-02     1.00000160E-24
  -1.88400000E-02     1.00000150E-24
  -1.88299995E-02     1.00000130E-24
  -1.88200008E-02     1.00000110E-24
  -1.88100003E-02     1.00000091E-24
  -1.87999997E-02     1.00000071E-24
  -1.87899992E-02     1.00000051E-24
  -1.87800005E-02     1.00000032E-24
  -1.87700000E-02     1.00000012E-24
  -1.87599994E-02     9.99999921E-25
  -1.87500007E-02     9.99999625E-25
  -1.87400002E-02     9.99999428E-25
  -1.87299997E-02     9.99999231E-25
  -1.87199991E-02     9.99999033E-25
  -1.87100004E-02     9.99998836E-25
  -1.86999999E-02     9.99998639E-25
  -1.86899994E-02     9.99998442E-25
  -1.86800007E-02     9.99998146E-25
  -1.86700001E-02     9.99997949E-25
  -1.86599996E-02     9.99997752E-25
  -1.86500009E-02     9.99997554E-25
  -1.86400004E-02     9.99997357E-25
  -1.86299998E-02     9.99997259E-25
  -1.86199993E-02     9.99997061E-25
  -1.86100006E-02     9.99996963E-25
  -1.86000001E-02     9.99996864E-25
  -1.85899995E-02     9.99996765E-25
  -1.85800008E-02     9.99996667E-25
  -1.85700003E-02     9.99996667E-25
  -1.85599998E-02     9.99996667E-25
  -1.85499992E-02     9.99996667E-25
  -1.85400005E-02     9.99996765E-25
  -1.85300000E-02     9.99996864E-25
  -1.85199995E-02     9.99996963E-25
  -1.85100008E-02     9.99997259E-25
  -1.85000002E-02     9.99997456E-25
  -1.84899997E-02     9.99997752E-25
  -1.84799992E-02     9.99998146E-25
  -1.84700005E-02     9.99998540E-25
  -1.84599999E-02     9.99999033E-25
  -1.84499994E-02     9.99999625E-25
  -1.84400007E-02     1.00000012E-24
  -1.84300002E-02     1.00000081E-24
  -1.84199996E-02     1.00000140E-24
  -1.84099991E-02     1.00000219E-24
  -1.84000004E-02     1.00000288E-24
  -1.83899999E-02     1.00000367E-24
  -1.83799993E-02     1.00000436E-24
  -1.83700006E-02     1.00000515E-24
  -1.83600001E-02     1.00000584E-24
  -1.83499996E-02     1.00000643E-24
  -1.83400009E-02     1.00000712E-24
  -1.83300003E-02     1.00000761E-24
  -1.83199998E-02     1.00000811E-24
  -1.83099993E-02     1.00000860E-24
  -1.83000006E-02     1.00000899E-24
  -1.82900000E-02     1.00000929E-24
  -1.82799995E-02     1.00000949E-24
  -1.82700008E-02     1.00000958E-24
  -1.82600003E-02     1.00000968E-24
  -1.82499997E-02     1.00000968E-24
  -1.82399992E-02     1.00000958E-24
  -1.82300005E-02     1.00000929E-24
  -1.82200000E-02     1.00000899E-24
  -1.82099994E-02     1.00000870E-24
  -1.82000007E-02     1.00000820E-24
  -1.81900002E-02     1.00000771E-24
  -1.81799997E-02     1.00000702E-24
  -1.81699991E-02     1.00000643E-24
  -1.81600004E-02     1.00000564E-24
  -1.81499999E-02     1.00000485E-24
  -1.81399994E-02     1.00000396E-24
  -1.81300007E-02     1.00000298E-24
  -1.81200001E-02     1.00000189E-24
  -1.81099996E-02     1.00000091E-24
  -1.81000009E-02     9.99999724E-25
  -1.80900004E-02     9.99998540E-25
  -1.80799998E-02     9.99997357E-25
  -1.80699993E-02     9.99996272E-25
  -1.80600006E-02     9.99995089E-25
  -1.80500001E-02     9.99993906E-25
  -1.80399995E-02     9.99992723E-25
  -1.80300009E-02     9.99991737E-25
  -1.80200003E-02     9.99990652E-25
  -1.80099998E-02     9.99989666E-25
  -1.79999992E-02     9.99988877E-25
  -1.79900005E-02     9.99988187E-25
  -1.79800000E-02     9.99987694E-25
  -1.79699995E-02     9.99987299E-25
  -1.79600008E-02     9.99986905E-25
  -1.79500002E-02     9.99986708E-25
  -1.79399997E-02     9.99986708E-25
  -1.79299992E-02     9.99986806E-25
  -1.79200005E-02     9.99987003E-25
  -1.79099999E-02     9.99987398E-25
  -1.78999994E-02     9.99987989E-25
  -1.78900007E-02     9.99988581E-25
  -1.78800002E-02     9.99989370E-25
  -1.78699996E-02     9.99990356E-25
  -1.78599991E-02     9.99991243E-25
  -1.78500004E-02     9.99992328E-25
  -1.78399999E-02     9.99993511E-25
  -1.78299993E-02     9.99994695E-25
  -1.78200006E-02     9.99995878E-25
  -1.78100001E-02     9.99997259E-25
  -1.77999996E-02     9.99998738E-25
  -1.77900009E-02     1.00000012E-24
  -1.77800003E-02     1.00000160E-24
  -1.77699998E-02     1.00000308E-24
  -1.77599993E-02     1.00000456E-24
  -1.77500006E-02     1.00000613E-24
  -1.77400000E-02     1.00000761E-24
  -1.77299995E-02     1.00000899E-24
  -1.77200008E-02     1.00001047E-24
  -1.77100003E-02     1.00001185E-24
  -1.76999997E-02     1.00001313E-24
  -1.76899992E-02     1.00001442E-24
  -1.76800005E-02     1.00001550E-24
  -1.76700000E-02     1.00001639E-24
  -1.76599994E-02     1.00001718E-24
  -1.76500008E-02     1.00001787E-24
  -1.76400002E-02     1.00001846E-24
  -1.76299997E-02     1.00001875E-24
  -1.76199991E-02     1.00001905E-24
  -1.76100004E-02     1.00001915E-24
  -1.75999999E-02     1.00001895E-24
  -1.75899994E-02     1.00001866E-24
  -1.75800007E-02     1.00001816E-24
  -1.75700001E-02     1.00001747E-24
  -1.75599996E-02     1.00001668E-24
  -1.75500009E-02     1.00001560E-24
  -1.75400004E-02     1.00001451E-24
  -1.75299998E-02     1.00001313E-24
  -1.75199993E-02     1.00001166E-24
  -1.75100006E-02     1.00001008E-24
  -1.75000001E-02     1.00000840E-24
  -1.74899995E-02     1.00000672E-24
  -1.74800009E-02     1.00000495E-24
  -1.74700003E-02     1.00000308E-24
  -1.74599998E-02     1.00000110E-24
  -1.74499992E-02     9.99999033E-25
  -1.74400005E-02     9.99997061E-25
  -1.74300000E-02     9.99994991E-25
  -1.74199995E-02     9.99992920E-25
  -1.74100008E-02     9.99990849E-25
  -1.74000002E-02     9.99988877E-25
  -1.73899997E-02     9.99987003E-25
  -1.73799992E-02     9.99985130E-25
  -1.73700005E-02     9.99983355E-25
  -1.73599999E-02     9.99981679E-25
  -1.73499994E-02     9.99980298E-25
  -1.73400007E-02     9.99978918E-25
  -1.73300002E-02     9.99977734E-25
  -1.73199996E-02     9.99976650E-25
  -1.73099991E-02     9.99975663E-25
  -1.73000004E-02     9.99974973E-25
  -1.72899999E-02     9.99974382E-25
  -1.72799993E-02     9.99973987E-25
  -1.72700007E-02     9.99973790E-25
  -1.72600001E-02     9.99973790E-25
  -1.72499996E-02     9.99973987E-25
  -1.72400009E-02     9.99974382E-25
  -1.72300003E-02     9.99974973E-25
  -1.72199998E-02     9.99975861E-25
  -1.72099993E-02     9.99976847E-25
  -1.72000006E-02     9.99978030E-25
  -1.71900000E-02     9.99979509E-25
  -1.71799995E-02     9.99981087E-25
  -1.71700008E-02     9.99982862E-25
  -1.71600003E-02     9.99984735E-25
  -1.71499997E-02     9.99986806E-25
  -1.71399992E-02     9.99988877E-25
  -1.71300005E-02     9.99991046E-25
  -1.71200000E-02     9.99993216E-25
  -1.71099994E-02     9.99995484E-25
  -1.71000008E-02     9.99997752E-25
  -1.70900002E-02     1.00000002E-24
  -1.70799997E-02     1.00000229E-24
  -1.70699991E-02     1.00000456E-24
  -1.70600004E-02     1.00000672E-24
  -1.70499999E-02     1.00000870E-24
  -1.70399994E-02     1.00001077E-24
  -1.70300007E-02     1.00001264E-24
  -1.70200001E-02     1.00001432E-24
  -1.70099996E-02     1.00001580E-24
  -1.70000009E-02     1.00001718E-24
  -1.69900004E-02     1.00001846E-24
  -1.69799998E-02     1.00001954E-24
  -1.69699993E-02     1.00002043E-24
  -1.69600006E-02     1.00002122E-24
  -1.69500001E-02     1.00002181E-24
  -1.69399995E-02     1.00002221E-24
  -1.69300009E-02     1.00002240E-24
  -1.69200003E-02     1.00002250E-24
  -1.69099998E-02     1.00002230E-24
  -1.68999992E-02     1.00002201E-24
  -1.68900006E-02     1.00002152E-24
  -1.68800000E-02     1.00002092E-24
  -1.68699995E-02     1.00002004E-24
  -1.68600008E-02     1.00001905E-24
  -1.68500002E-02     1.00001787E-24
  -1.68399997E-02     1.00001659E-24
  -1.68299992E-02     1.00001511E-24
  -1.68200005E-02     1.00001363E-24
  -1.68099999E-02     1.00001205E-24
  -1.67999994E-02     1.00001037E-24
  -1.67900007E-02     1.00000860E-24
  -1.67800002E-02     1.00000692E-24
  -1.67699996E-02     1.00000505E-24
  -1.67599991E-02     1.00000327E-24
  -1.67500004E-02     1.00000140E-24
  -1.67399999E-02     9.99999625E-25
  -1.67299993E-02     9.99997850E-25
  -1.67200007E-02     9.99996174E-25
  -1.67100001E-02     9.99994498E-25
  -1.66999996E-02     9.99993018E-25
  -1.66900009E-02     9.99991539E-25
  -1.66800003E-02     9.99990257E-25
  -1.66699998E-02     9.99989173E-25
  -1.66599993E-02     9.99988187E-25
  -1.66500006E-02     9.99987299E-25
  -1.66400000E-02     9.99986510E-25
  -1.66299995E-02     9.99985919E-25
  -1.66200008E-02     9.99985524E-25
  -1.66100003E-02     9.99985130E-25
  -1.65999997E-02     9.99984834E-25
  -1.65899992E-02     9.99984735E-25
  -1.65800005E-02     9.99984637E-25
  -1.65700000E-02     9.99984834E-25
  -1.65599994E-02     9.99985130E-25
  -1.65500008E-02     9.99985426E-25
  -1.65400002E-02     9.99985820E-25
  -1.65299997E-02     9.99986214E-25
  -1.65199991E-02     9.99986708E-25
  -1.65100005E-02     9.99987398E-25
  -1.64999999E-02     9.99987989E-25
  -1.64899994E-02     9.99988680E-25
  -1.64800007E-02     9.99989469E-25
  -1.64700001E-02     9.99990257E-25
  -1.64599996E-02     9.99991145E-25
  -1.64500009E-02     9.99992032E-25
  -1.64400004E-02     9.99993018E-25
  -1.64299998E-02     9.99994004E-25
  -1.64199993E-02     9.99995089E-25
  -1.64100006E-02     9.99996075E-25
  -1.64000001E-02     9.99997061E-25
  -1.63899995E-02     9.99998047E-25
  -1.63800009E-02     9.99999132E-25
  -1.63700003E-02     1.00000012E-24
  -1.63599998E-02     1.00000110E-24
  -1.63499992E-02     1.00000209E-24
  -1.63400006E-02     1.00000308E-24
  -1.63300000E-02     1.00000406E-24
  -1.63199995E-02     1.00000495E-24
  -1.63100008E-02     1.00000594E-24
  -1.63000003E-02     1.00000682E-24
  -1.62899997E-02     1.00000771E-24
  -1.62799992E-02     1.00000850E-24
  -1.62700005E-02     1.00000939E-24
  -1.62599999E-02     1.00001027E-24
  -1.62499994E-02     1.00001116E-24
  -1.62400007E-02     1.00001195E-24
  -1.62300002E-02     1.00001274E-24
  -1.62199996E-02     1.00001363E-24
  -1.62099991E-02     1.00001451E-24
  -1.62000004E-02     1.00001530E-24
  -1.61899999E-02     1.00001619E-24
  -1.61799993E-02     1.00001698E-24
  -1.61700007E-02     1.00001777E-24
  -1.61600001E-02     1.00001856E-24
  -1.61499996E-02     1.00001935E-24
  -1.61400009E-02     1.00002004E-24
  -1.61300004E-02     1.00002063E-24
  -1.61199998E-02     1.00002122E-24
  -1.61099993E-02     1.00002161E-24
  -1.61000006E-02     1.00002191E-24
  -1.60900000E-02     1.00002201E-24
  -1.60799995E-02     1.00002211E-24
  -1.60700008E-02     1.00002201E-24
  -1.60600003E-02     1.00002171E-24
  -1.60499997E-02     1.00002132E-24
  -1.60399992E-02     1.00002073E-24
  -1.60300005E-02     1.00002004E-24
  -1.60200000E-02     1.00001905E-24
  -1.60099994E-02     1.00001797E-24
  -1.60000008E-02     1.00001668E-24
  -1.59900002E-02     1.00001511E-24
  -1.59799997E-02     1.00001343E-24
  -1.59699991E-02     1.00001146E-24
  -1.59600005E-02     1.00000929E-24
  -1.59499999E-02     1.00000702E-24
  -1.59399994E-02     1.00000456E-24
  -1.59300007E-02     1.00000189E-24
  -1.59200002E-02     9.99999033E-25
  -1.59099996E-02     9.99996075E-25
  -1.59000009E-02     9.99993018E-25
  -1.58900004E-02     9.99989962E-25
  -1.58799998E-02     9.99986806E-25
  -1.58699993E-02     9.99983552E-25
  -1.58600006E-02     9.99980298E-25
  -1.58500001E-02     9.99977044E-25
  -1.58399995E-02     9.99973790E-25
  -1.58300009E-02     9.99970733E-25
  -1.58200003E-02     9.99967775E-25
  -1.58099998E-02     9.99965112E-25
  -1.57999992E-02     9.99962450E-25
  -1.57900006E-02     9.99960083E-25
  -1.57800000E-02     9.99958013E-25
  -1.57699995E-02     9.99956238E-25
  -1.57600008E-02     9.99954857E-25
  -1.57500003E-02     9.99953871E-25
  -1.57399997E-02     9.99953181E-25
  -1.57299992E-02     9.99952984E-25
  -1.57200005E-02     9.99953181E-25
  -1.57099999E-02     9.99953871E-25
  -1.56999994E-02     9.99954956E-25
  -1.56900007E-02     9.99956435E-25
  -1.56800002E-02     9.99958407E-25
  -1.56699996E-02     9.99960774E-25
  -1.56599991E-02     9.99963633E-25
  -1.56500004E-02     9.99966789E-25
  -1.56399999E-02     9.99970437E-25
  -1.56299993E-02     9.99974382E-25
  -1.56199997E-02     9.99978622E-25
  -1.56100001E-02     9.99983158E-25
  -1.55999996E-02     9.99987989E-25
  -1.55900000E-02     9.99993018E-25
  -1.55800004E-02     9.99998245E-25
  -1.55699998E-02     1.00000347E-24
  -1.55600002E-02     1.00000889E-24
  -1.55499997E-02     1.00001432E-24
  -1.55400001E-02     1.00001964E-24
  -1.55300004E-02     1.00002487E-24
  -1.55199999E-02     1.00003000E-24
  -1.55100003E-02     1.00003493E-24
  -1.54999997E-02     1.00003956E-24
  -1.54900001E-02     1.00004380E-24
  -1.54799996E-02     1.00004784E-24
  -1.54700000E-02     1.00005139E-24
  -1.54600004E-02     1.00005435E-24
  -1.54499998E-02     1.00005692E-24
  -1.54400002E-02     1.00005899E-24
  -1.54299997E-02     1.00006047E-24
  -1.54200001E-02     1.00006145E-24
  -1.54100005E-02     1.00006175E-24
  -1.53999999E-02     1.00006155E-24
  -1.53900003E-02     1.00006086E-24
  -1.53799998E-02     1.00005948E-24
  -1.53700002E-02     1.00005751E-24
  -1.53599996E-02     1.00005504E-24
  -1.53500000E-02     1.00005218E-24
  -1.53400004E-02     1.00004883E-24
  -1.53299998E-02     1.00004489E-24
  -1.53200002E-02     1.00004065E-24
  -1.53099997E-02     1.00003611E-24
  -1.53000001E-02     1.00003138E-24
  -1.52899995E-02     1.00002625E-24
  -1.52799999E-02     1.00002112E-24
  -1.52700003E-02     1.00001580E-24
  -1.52599998E-02     1.00001037E-24
  -1.52500002E-02     1.00000505E-24
  -1.52399996E-02     9.99999625E-25
  -1.52300000E-02     9.99994399E-25
  -1.52200004E-02     9.99989370E-25
  -1.52099999E-02     9.99984637E-25
  -1.52000003E-02     9.99980199E-25
  -1.51899997E-02     9.99976058E-25
  -1.51800001E-02     9.99972212E-25
  -1.51699996E-02     9.99968860E-25
  -1.51600000E-02     9.99966000E-25
  -1.51500003E-02     9.99963535E-25
  -1.51399998E-02     9.99961563E-25
  -1.51300002E-02     9.99960182E-25
  -1.51199996E-02     9.99959196E-25
  -1.51100000E-02     9.99958802E-25
  -1.51000004E-02     9.99958999E-25
  -1.50899999E-02     9.99959689E-25
  -1.50800003E-02     9.99960872E-25
  -1.50699997E-02     9.99962549E-25
  -1.50600001E-02     9.99964619E-25
  -1.50499996E-02     9.99966986E-25
  -1.50400000E-02     9.99969846E-25
  -1.50300004E-02     9.99973100E-25
  -1.50199998E-02     9.99976452E-25
  -1.50100002E-02     9.99980101E-25
  -1.49999997E-02     9.99983947E-25
  -1.49900001E-02     9.99987891E-25
  -1.49800004E-02     9.99991835E-25
  -1.49699999E-02     9.99995779E-25
  -1.49600003E-02     9.99999527E-25
  -1.49499997E-02     1.00000327E-24
  -1.49400001E-02     1.00000672E-24
  -1.49299996E-02     1.00001018E-24
  -1.49200000E-02     1.00001313E-24
  -1.49100004E-02     1.00001590E-24
  -1.48999998E-02     1.00001836E-24
  -1.48900002E-02     1.00002043E-24
  -1.48799997E-02     1.00002211E-24
  -1.48700001E-02     1.00002349E-24
  -1.48600005E-02     1.00002438E-24
  -1.48499999E-02     1.00002487E-24
  -1.48400003E-02     1.00002507E-24
  -1.48299998E-02     1.00002497E-24
  -1.48200002E-02     1.00002438E-24
  -1.48099996E-02     1.00002349E-24
  -1.48000000E-02     1.00002221E-24
  -1.47900004E-02     1.00002073E-24
  -1.47799999E-02     1.00001895E-24
  -1.47700002E-02     1.00001708E-24
  -1.47599997E-02     1.00001501E-24
  -1.47500001E-02     1.00001274E-24
  -1.47399995E-02     1.00001047E-24
  -1.47299999E-02     1.00000820E-24
  -1.47200003E-02     1.00000603E-24
  -1.47099998E-02     1.00000387E-24
  -1.47000002E-02     1.00000179E-24
  -1.46899996E-02     1.00000002E-24
  -1.46800000E-02     9.99998343E-25
  -1.46700004E-02     9.99996963E-25
  -1.46599999E-02     9.99995779E-25
  -1.46500003E-02     9.99995089E-25
  -1.46399997E-02     9.99994793E-25
  -1.46300001E-02     9.99994793E-25
  -1.46199996E-02     9.99995188E-25
  -1.46100000E-02     9.99996075E-25
  -1.46000003E-02     9.99997357E-25
  -1.45899998E-02     9.99999132E-25
  -1.45800002E-02     1.00000130E-24
  -1.45699997E-02     1.00000387E-24
  -1.45600000E-02     1.00000702E-24
  -1.45500004E-02     1.00001037E-24
  -1.45399999E-02     1.00001432E-24
  -1.45300003E-02     1.00001846E-24
  -1.45199997E-02     1.00002300E-24
  -1.45100001E-02     1.00002773E-24
  -1.44999996E-02     1.00003256E-24
  -1.44900000E-02     1.00003769E-24
  -1.44800004E-02     1.00004291E-24
  -1.44699998E-02     1.00004834E-24
  -1.44600002E-02     1.00005356E-24
  -1.44499997E-02     1.00005879E-24
  -1.44400001E-02     1.00006402E-24
  -1.44300004E-02     1.00006895E-24
  -1.44199999E-02     1.00007388E-24
  -1.44100003E-02     1.00007841E-24
  -1.43999998E-02     1.00008265E-24
  -1.43900001E-02     1.00008670E-24
  -1.43799996E-02     1.00009044E-24
  -1.43700000E-02     1.00009380E-24
  -1.43600004E-02     1.00009675E-24
  -1.43499998E-02     1.00009932E-24
  -1.43400002E-02     1.00010139E-24
  -1.43299997E-02     1.00010306E-24
  -1.43200001E-02     1.00010415E-24
  -1.43100005E-02     1.00010494E-24
  -1.42999999E-02     1.00010523E-24
  -1.42900003E-02     1.00010504E-24
  -1.42799998E-02     1.00010445E-24
  -1.42700002E-02     1.00010346E-24
  -1.42599996E-02     1.00010208E-24
  -1.42500000E-02     1.00010030E-24
  -1.42400004E-02     1.00009804E-24
  -1.42299999E-02     1.00009547E-24
  -1.42200002E-02     1.00009251E-24
  -1.42099997E-02     1.00008926E-24
  -1.42000001E-02     1.00008581E-24
  -1.41899996E-02     1.00008206E-24
  -1.41799999E-02     1.00007802E-24
  -1.41700003E-02     1.00007368E-24
  -1.41599998E-02     1.00006924E-24
  -1.41500002E-02     1.00006451E-24
  -1.41399996E-02     1.00005958E-24
  -1.41300000E-02     1.00005455E-24
  -1.41200004E-02     1.00004932E-24
  -1.41099999E-02     1.00004410E-24
  -1.41000003E-02     1.00003877E-24
  -1.40899997E-02     1.00003335E-24
  -1.40800001E-02     1.00002793E-24
  -1.40699996E-02     1.00002250E-24
  -1.40600000E-02     1.00001708E-24
  -1.40500003E-02     1.00001166E-24
  -1.40399998E-02     1.00000623E-24
  -1.40300002E-02     1.00000101E-24
  -1.40199997E-02     9.99995779E-25
  -1.40100000E-02     9.99990750E-25
  -1.40000004E-02     9.99985820E-25
  -1.39899999E-02     9.99980988E-25
  -1.39800003E-02     9.99976255E-25
  -1.39699997E-02     9.99971621E-25
  -1.39600001E-02     9.99967183E-25
  -1.39499996E-02     9.99962844E-25
  -1.39400000E-02     9.99958802E-25
  -1.39300004E-02     9.99954857E-25
  -1.39199998E-02     9.99951209E-25
  -1.39100002E-02     9.99947856E-25