  -2.19999999E-02     1.00000002E-24
  -2.19899993E-02     1.00000002E-24
  -2.19800007E-02     1.00000002E-24
  -2.19700001E-02     1.00000002E-24
  -2.19599996E-02     1.00000012E-24
  -2.19500009E-02     1.00000022E-24
  -2.19400004E-02     1.00000032E-24
  -2.19299998E-02     1.00000032E-24
  -2.19199993E-02     1.00000032E-24
  -2.19100006E-02     1.00000022E-24
  -2.19000001E-02     1.00000012E-24
  -2.18899995E-02     1.00000002E-24
  -2.18800008E-02     1.00000002E-24
  -2.18700003E-02     1.00000002E-24
  -2.18599997E-02     1.00000012E-24
  -2.18499992E-02     1.00000022E-24
  -2.18400005E-02     1.00000032E-24
  -2.18300000E-02     1.00000032E-24
  -2.18199994E-02     1.00000012E-24
  -2.18100008E-02     9.99999921E-25
  -2.18000002E-02     9.99999724E-25
  -2.17899997E-02     9.99999428E-25
  -2.17799991E-02     9.99999527E-25
  -2.17700005E-02     9.99999724E-25
  -2.17599999E-02     9.99999921E-25
  -2.17499994E-02     1.00000012E-24
  -2.17400007E-02     1.00000032E-24
  -2.17300002E-02     1.00000041E-24
  -2.17199996E-02     1.00000041E-24
  -2.17099991E-02     1.00000061E-24
  -2.17000004E-02     1.00000101E-24
  -2.16899998E-02     1.00000179E-24
  -2.16799993E-02     1.00000278E-24
  -2.16700006E-02     1.00000387E-24
  -2.16600001E-02     1.00000456E-24
  -2.16499995E-02     1.00000426E-24
  -2.16400009E-02     1.00000229E-24
  -2.16300003E-02     9.99998343E-25
  -2.16199998E-02     9.99992821E-25
  -2.16099992E-02     9.99986609E-25
  -2.16000006E-02     9.99981383E-25
  -2.15900000E-02     9.99979115E-25
  -2.15799995E-02     9.99981876E-25
  -2.15700008E-02     9.99990948E-25
  -2.15600003E-02     1.00000613E-24
  -2.15499997E-02     1.00002546E-24
  -2.15399992E-02     1.00004489E-24
  -2.15300005E-02     1.00005948E-24
  -2.15200000E-02     1.00006352E-24
  -2.15099994E-02     1.00005189E-24
  -2.15000007E-02     1.00002142E-24
  -2.14900002E-02     9.99972409E-25
  -2.14799996E-02     9.99909103E-25
  -2.14699991E-02     9.99840374E-25
  -2.14600004E-02     9.99778054E-25
  -2.14499999E-02     9.99736047E-25
  -2.14399993E-02     9.99728158E-25
  -2.14300007E-02     9.99764742E-25
  -2.14200001E-02     9.99850530E-25
  -2.14099996E-02     9.99982665E-25
  -2.14000009E-02     1.00015020E-24
  -2.13900004E-02     1.00033361E-24
  -2.13799998E-02     1.00050736E-24
  -2.13699993E-02     1.00064284E-24
  -2.13600006E-02     1.00071226E-24
  -2.13500001E-02     1.00069294E-24
  -2.13399995E-02     1.00057086E-24
  -2.13300008E-02     1.00034357E-24
  -2.13200003E-02     1.00002152E-24
  -2.13099997E-02     9.99627480E-25
  -2.12999992E-02     9.99193311E-25
  -2.12900005E-02     9.98755591E-25
  -2.12800000E-02     9.98350314E-25
  -2.12699994E-02     9.98006371E-25
  -2.12600008E-02     9.97740919E-25
  -2.12500002E-02     9.97554847E-25
  -2.12399997E-02     9.97431193E-25
  -2.12299991E-02     9.97336332E-25
  -2.12200005E-02     9.97223624E-25
  -2.12099999E-02     9.97039622E-25
  -2.11999994E-02     9.96732360E-25
  -2.11900007E-02     9.96259537E-25
  -2.11800002E-02     9.95596795E-25
  -2.11699996E-02     9.94744037E-25
  -2.11599991E-02     9.93728477E-25
  -2.11500004E-02     9.92603265E-25
  -2.11399999E-02     9.91443541E-25
  -2.11299993E-02     9.90338051E-25
  -2.11200006E-02     9.89378106E-25
  -2.11100001E-02     9.88646240E-25
  -2.10999995E-02     9.88203295E-25
  -2.10900009E-02     9.88080233E-25
  -2.10800003E-02     9.88271531E-25
  -2.10699998E-02     9.88734494E-25
  -2.10599992E-02     9.89393390E-25
  -2.10500006E-02     9.90147640E-25
  -2.10400000E-02     9.90885718E-25
  -2.10299995E-02     9.91498761E-25
  -2.10200008E-02     9.91896742E-25
  -2.10100003E-02     9.92021086E-25
  -2.09999997E-02     9.91854340E-25
  -2.09899992E-02     9.91424707E-25
  -2.09800005E-02     9.90803676E-25
  -2.09700000E-02     9.90099224E-25
  -2.09599994E-02     9.89442497E-25
  -2.09500007E-02     9.88971547E-25
  -2.09400002E-02     9.88814564E-25
  -2.09299996E-02     9.89072915E-25
  -2.09199991E-02     9.89807246E-25
  -2.09100004E-02     9.91029488E-25
  -2.08999999E-02     9.92700887E-25
  -2.08899993E-02     9.94735556E-25
  -2.08800007E-02     9.97010927E-25
  -2.08700001E-02     9.99383032E-25
  -2.08599996E-02     1.00170386E-24
  -2.08500009E-02     1.00383960E-24
  -2.08400004E-02     1.00568702E-24
  -2.08299998E-02     1.00718654E-24
  -2.08199993E-02     1.00832822E-24
  -2.08100006E-02     1.00915258E-24
  -2.08000001E-02     1.00974393E-24
  -2.07899995E-02     1.01021813E-24
  -2.07800008E-02     1.01070644E-24
  -2.07700003E-02     1.01133704E-24
  -2.07599998E-02     1.01221543E-24
  -2.07499992E-02     1.01341016E-24
  -2.07400005E-02     1.01494045E-24
  -2.07300000E-02     1.01677229E-24
  -2.07199994E-02     1.01882037E-24
  -2.07100008E-02     1.02095690E-24
  -2.07000002E-02     1.02302598E-24
  -2.06899997E-02     1.02486245E-24
  -2.06799991E-02     1.02631070E-24
  -2.06700005E-02     1.02724422E-24
  -2.06599999E-02     1.02757939E-24
  -2.06499994E-02     1.02728583E-24
  -2.06400007E-02     1.02638860E-24
  -2.06300002E-02     1.02496392E-24
  -2.06199996E-02     1.02312824E-24
  -2.06099991E-02     1.02102287E-24
  -2.06000004E-02     1.01879542E-24
  -2.05899999E-02     1.01658138E-24
  -2.05799993E-02     1.01448725E-24
  -2.05700006E-02     1.01257870E-24
  -2.05600001E-02     1.01087348E-24
  -2.05499995E-02     1.00934191E-24
  -2.05400009E-02     1.00791308E-24
  -2.05300003E-02     1.00648692E-24
  -2.05199998E-02     1.00494943E-24
  -2.05099992E-02     1.00319027E-24
  -2.05000006E-02     1.00111902E-24
  -2.04900000E-02     9.98678973E-25
  -2.04799995E-02     9.95856232E-25
  -2.04700008E-02     9.92683137E-25
  -2.04600003E-02     9.89235125E-25
  -2.04499997E-02     9.85623621E-25
  -2.04399992E-02     9.81982436E-25
  -2.04300005E-02     9.78453664E-25
  -2.04200000E-02     9.75171313E-25
  -2.04099994E-02     9.72247893E-25
  -2.04000007E-02     9.69762981E-25
  -2.03900002E-02     9.67757894E-25
  -2.03799997E-02     9.66233913E-25
  -2.03699991E-02     9.65156625E-25
  -2.03600004E-02     9.64464301E-25
  -2.03499999E-02     9.64078055E-25
  -2.03399993E-02     9.63914465E-25
  -2.03300007E-02     9.63896518E-25
  -2.03200001E-02     9.63963571E-25
  -2.03099996E-02     9.64077365E-25
  -2.03000009E-02     9.64224980E-25
  -2.02900004E-02     9.64417561E-25
  -2.02799998E-02     9.64685971E-25
  -2.02699993E-02     9.65075077E-25
  -2.02600006E-02     9.65635266E-25
  -2.02500001E-02     9.66414661E-25
  -2.02399995E-02     9.67452900E-25
  -2.02300008E-02     9.68775623E-25
  -2.02200003E-02     9.70391506E-25
  -2.02099998E-02     9.72291182E-25
  -2.01999992E-02     9.74448618E-25
  -2.01900005E-02     9.76822892E-25
  -2.01800000E-02     9.79362235E-25
  -2.01699995E-02     9.82007581E-25
  -2.01600008E-02     9.84696512E-25
  -2.01500002E-02     9.87367398E-25
  -2.01399997E-02     9.89961469E-25
  -2.01299991E-02     9.92426560E-25
  -2.01200005E-02     9.94719483E-25
  -2.01099999E-02     9.96806908E-25
  -2.00999994E-02     9.98667929E-25
  -2.00900007E-02     1.00029367E-24
  -2.00800002E-02     1.00168838E-24
  -2.00699996E-02     1.00286792E-24
  -2.00599991E-02     1.00385814E-24
  -2.00500004E-02     1.00469226E-24
  -2.00399999E-02     1.00540628E-24
  -2.00299993E-02     1.00603471E-24
  -2.00200006E-02     1.00660564E-24
  -2.00100001E-02     1.00713596E-24
  -1.99999996E-02     1.00762732E-24
  -1.99900009E-02     1.00806435E-24
  -1.99800003E-02     1.00841421E-24
  -1.99699998E-02     1.00862878E-24
  -1.99599992E-02     1.00864939E-24
  -1.99500006E-02     1.00841342E-24
  -1.99400000E-02     1.00786289E-24
  -1.99299995E-02     1.00695166E-24
  -1.99200008E-02     1.00565408E-24
  -1.99100003E-02     1.00397016E-24
  -1.98999997E-02     1.00192859E-24
  -1.98899992E-02     9.99585868E-25
  -1.98800005E-02     9.97022168E-25
  -1.98700000E-02     9.94333730E-25
  -1.98599994E-02     9.91622317E-25
  -1.98500007E-02     9.88984563E-25
  -1.98400002E-02     9.86500440E-25
  -1.98299997E-02     9.84224576E-25
  -1.98199991E-02     9.82179849E-25
  -1.98100004E-02     9.80356101E-25
  -1.97999999E-02     9.78712312E-25
  -1.97899994E-02     9.77184683E-25
  -1.97800007E-02     9.75695511E-25
  -1.97700001E-02     9.74166698E-25
  -1.97599996E-02     9.72531390E-25
  -1.97500009E-02     9.70745606E-25
  -1.97400004E-02     9.68795739E-25
  -1.97299998E-02     9.66701905E-25
  -1.97199993E-02     9.64517450E-25
  -1.97100006E-02     9.62322938E-25
  -1.97000001E-02     9.60216384E-25
  -1.96899995E-02     9.58301128E-25
  -1.96800008E-02     9.56672722E-25
  -1.96700003E-02     9.55406206E-25
  -1.96599998E-02     9.54546742E-25
  -1.96499992E-02     9.54102613E-25
  -1.96400005E-02     9.54044632E-25
  -1.96300000E-02     9.54309196E-25
  -1.96199995E-02     9.54806573E-25
  -1.96100008E-02     9.55432435E-25
  -1.96000002E-02     9.56081668E-25
  -1.95899997E-02     9.56661776E-25
  -1.95799991E-02     9.57105708E-25
  -1.95700005E-02     9.57379541E-25
  -1.95599999E-02     9.57487122E-25
  -1.95499994E-02     9.57468387E-25
  -1.95400007E-02     9.57392064E-25
  -1.95300002E-02     9.57345522E-25
  -1.95199996E-02     9.57419970E-25
  -1.95099991E-02     9.57696367E-25
  -1.95000004E-02     9.58230919E-25
  -1.94899999E-02     9.59044728E-25
  -1.94799993E-02     9.60118170E-25
  -1.94700006E-02     9.61391195E-25
  -1.94600001E-02     9.62769532E-25
  -1.94499996E-02     9.64135149E-25
  -1.94400009E-02     9.65362123E-25
  -1.94300003E-02     9.66333211E-25
  -1.94199998E-02     9.66955524E-25
  -1.94099993E-02     9.67173841E-25
  -1.94000006E-02     9.66979584E-25
  -1.93900000E-02     9.66412097E-25
  -1.93799995E-02     9.65555394E-25
  -1.93700008E-02     9.64527804E-25
  -1.93600003E-02     9.63466589E-25
  -1.93499997E-02     9.62510490E-25
  -1.93399992E-02     9.61780991E-25
  -1.93300005E-02     9.61366839E-25
  -1.93200000E-02     9.61311421E-25
  -1.93099994E-02     9.61607244E-25
  -1.93000007E-02     9.62197312E-25
  -1.92900002E-02     9.62983412E-25
  -1.92799997E-02     9.63840115E-25
  -1.92699991E-02     9.64632624E-25
  -1.92600004E-02     9.65236990E-25
  -1.92499999E-02     9.65558155E-25
  -1.92399994E-02     9.65544843E-25
  -1.92300007E-02     9.65197744E-25
  -1.92200001E-02     9.64569811E-25
  -1.92099996E-02     9.63759059E-25
  -1.92000009E-02     9.62894468E-25
  -1.91900004E-02     9.62115763E-25
  -1.91799998E-02     9.61553306E-25
  -1.91699993E-02     9.61306688E-25
  -1.91600006E-02     9.61427975E-25
  -1.91500001E-02     9.61912928E-25
  -1.91399995E-02     9.62697746E-25
  -1.91300008E-02     9.63667157E-25
  -1.91200003E-02     9.64667827E-25
  -1.91099998E-02     9.65529066E-25
  -1.90999992E-02     9.66086298E-25
  -1.90900005E-02     9.66203838E-25
  -1.90800000E-02     9.65794320E-25
  -1.90699995E-02     9.64831812E-25
  -1.90600008E-02     9.63356444E-25
  -1.90500002E-02     9.61469785E-25
  -1.90399997E-02     9.59323196E-25
  -1.90299992E-02     9.57097425E-25
  -1.90200005E-02     9.54980221E-25
  -1.90099999E-02     9.53141386E-25
  -1.89999994E-02     9.51711970E-25
  -1.89900007E-02     9.50766520E-25
  -1.89800002E-02     9.50315588E-25
  -1.89699996E-02     9.50304741E-25
  -1.89599991E-02     9.50623638E-25
  -1.89500004E-02     9.51122494E-25
  -1.89399999E-02     9.51632985E-25
  -1.89299993E-02     9.51993002E-25
  -1.89200006E-02     9.52069028E-25
  -1.89100001E-02     9.51776065E-25
  -1.88999996E-02     9.51089756E-25
  -1.88900009E-02     9.50051221E-25
  -1.88800003E-02     9.48761827E-25
  -1.88699998E-02     9.47371559E-25
  -1.88599993E-02     9.46059683E-25
  -1.88500006E-02     9.45011090E-25
  -1.88400000E-02     9.44392623E-25
  -1.88299995E-02     9.44330697E-25
  -1.88200008E-02     9.44894240E-25
  -1.88100003E-02     9.46084729E-25
  -1.87999997E-02     9.47835705E-25
  -1.87899992E-02     9.50019370E-25
  -1.87800005E-02     9.52461782E-25
  -1.87700000E-02     9.54963852E-25
  -1.87599994E-02     9.57324025E-25
  -1.87500007E-02     9.59362343E-25
  -1.87400002E-02     9.60940854E-25
  -1.87299997E-02     9.61979290E-25
  -1.87199991E-02     9.62462665E-25
  -1.87100004E-02     9.62442352E-25
  -1.86999999E-02     9.62028594E-25
  -1.86899994E-02     9.61376108E-25
  -1.86800007E-02     9.60665541E-25
  -1.86700001E-02     9.60081488E-25
  -1.86599996E-02     9.59790201E-25
  -1.86500009E-02     9.59920364E-25
  -1.86400004E-02     9.60547508E-25
  -1.86299998E-02     9.61684355E-25
  -1.86199993E-02     9.63278742E-25
  -1.86100006E-02     9.65217663E-25
  -1.86000001E-02     9.67338023E-25
  -1.85899995E-02     9.69444380E-25
  -1.85800008E-02     9.71327982E-25
  -1.85700003E-02     9.72790432E-25
  -1.85599998E-02     9.73663997E-25
  -1.85499992E-02     9.73830644E-25
  -1.85400005E-02     9.73235054E-25
  -1.85300000E-02     9.71891426E-25
  -1.85199995E-02     9.69882888E-25
  -1.85100008E-02     9.67353011E-25
  -1.85000002E-02     9.64491221E-25
  -1.84899997E-02     9.61512482E-25
  -1.84799992E-02     9.58634323E-25
  -1.84700005E-02     9.56053762E-25
  -1.84599999E-02     9.53925415E-25
  -1.84499994E-02     9.52346214E-25
  -1.84400007E-02     9.51344459E-25
  -1.84300002E-02     9.50878440E-25
  -1.84199996E-02     9.50842152E-25
  -1.84099991E-02     9.51079501E-25
  -1.84000004E-02     9.51403427E-25
  -1.83899999E-02     9.51620462E-25
  -1.83799993E-02     9.51554691E-25
  -1.83700006E-02     9.51071612E-25
  -1.83600001E-02     9.50097172E-25
  -1.83499996E-02     9.48630186E-25
  -1.83400009E-02     9.46746386E-25
  -1.83300003E-02     9.44593585E-25
  -1.83199998E-02     9.42377576E-25
  -1.83099993E-02     9.40339948E-25
  -1.83000006E-02     9.38731658E-25
  -1.82900000E-02     9.37782954E-25
  -1.82799995E-02     9.37675768E-25
  -1.82700008E-02     9.38519455E-25
  -1.82600003E-02     9.40334426E-25
  -1.82499997E-02     9.43046629E-25
  -1.82399992E-02     9.46490795E-25
  -1.82300005E-02     9.50426817E-25
  -1.82200000E-02     9.54563801E-25
  -1.82099994E-02     9.58591725E-25
  -1.82000007E-02     9.62215653E-25
  -1.81900002E-02     9.65188870E-25
  -1.81799997E-02     9.67341671E-25
  -1.81699991E-02     9.68600299E-25
  -1.81600004E-02     9.68995124E-25
  -1.81499999E-02     9.68657491E-25
  -1.81399994E-02     9.67802563E-25
  -1.81300007E-02     9.66703976E-25
  -1.81200001E-02     9.65659425E-25
  -1.81099996E-02     9.64954479E-25
  -1.81000009E-02     9.64825796E-25
  -1.80900004E-02     9.65431543E-25
  -1.80799998E-02     9.66829503E-25
  -1.80699993E-02     9.68967415E-25
  -1.80600006E-02     9.71687703E-25
  -1.80500001E-02     9.74743947E-25
  -1.80399995E-02     9.77829577E-25
  -1.80300009E-02     9.80614256E-25
  -1.80200003E-02     9.82784215E-25
  -1.80099998E-02     9.84080609E-25
  -1.79999992E-02     9.84333636E-25
  -1.79900005E-02     9.83484822E-25
  -1.79800000E-02     9.81597571E-25
  -1.79699995E-02     9.78851842E-25
  -1.79600008E-02     9.75524821E-25
  -1.79500002E-02     9.71958973E-25
  -1.79399997E-02     9.68521117E-25
  -1.79299992E-02     9.65558451E-25
  -1.79200005E-02     9.63354768E-25
  -1.79099999E-02     9.62095352E-25
  -1.78999994E-02     9.61842325E-25
  -1.78900007E-02     9.62525379E-25
  -1.78800002E-02     9.63948879E-25
  -1.78699996E-02     9.65815225E-25
  -1.78599991E-02     9.67760359E-25
  -1.78500004E-02     9.69399218E-25
  -1.78399999E-02     9.70374151E-25
  -1.78299993E-02     9.70400578E-25
  -1.78200006E-02     9.69304850E-25
  -1.78100001E-02     9.67047919E-25
  -1.77999996E-02     9.63733520E-25
  -1.77900009E-02     9.59598804E-25
  -1.77800003E-02     9.54987320E-25
  -1.77699998E-02     9.50309967E-25
  -1.77599993E-02     9.45996574E-25
  -1.77500006E-02     9.42445221E-25
  -1.77400000E-02     9.39974509E-25
  -1.77299995E-02     9.38786681E-25
  -1.77200008E-02     9.38942974E-25
  -1.77100003E-02     9.40357501E-25
  -1.76999997E-02     9.42808491E-25
  -1.76899992E-02     9.45966104E-25
  -1.76800005E-02     9.49433345E-25
  -1.76700000E-02     9.52795175E-25
  -1.76599994E-02     9.55668798E-25
  -1.76500008E-02     9.57750207E-25
  -1.76400002E-02     9.58849978E-25
  -1.76299997E-02     9.58914270E-25
  -1.76199991E-02     9.58030056E-25
  -1.76100004E-02     9.56411905E-25
  -1.75999999E-02     9.54372403E-25
  -1.75899994E-02     9.52282711E-25
  -1.75800007E-02     9.50523847E-25
  -1.75700001E-02     9.49439656E-25
  -1.75599996E-02     9.49293224E-25
  -1.75500009E-02     9.50234039E-25
  -1.75400004E-02     9.52280837E-25
  -1.75299998E-02     9.55318938E-25
  -1.75199993E-02     9.59115430E-25
  -1.75100006E-02     9.63347668E-25
  -1.75000001E-02     9.67642227E-25
  -1.74899995E-02     9.71620354E-25
  -1.74800009E-02     9.74942346E-25
  -1.74700003E-02     9.77346893E-25
  -1.74599998E-02     9.78680856E-25
  -1.74499992E-02     9.78915345E-25
  -1.74400005E-02     9.78146403E-25
  -1.74300000E-02     9.76581796E-25
  -1.74199995E-02     9.74513994E-25
  -1.74100008E-02     9.72284575E-25
  -1.74000002E-02     9.70243200E-25
  -1.73899997E-02     9.68706499E-25
  -1.73799992E-02     9.67922076E-25
  -1.73700005E-02     9.68041489E-25
  -1.73599999E-02     9.69103691E-25
  -1.73499994E-02     9.71033639E-25
  -1.73400007E-02     9.73652756E-25
  -1.73300002E-02     9.76701407E-25
  -1.73199996E-02     9.79870261E-25
  -1.73099991E-02     9.82836280E-25
  -1.73000004E-02     9.85299202E-25
  -1.72899999E-02     9.87014777E-25
  -1.72799993E-02     9.87820697E-25
  -1.72700007E-02     9.87652571E-25
  -1.72600001E-02     9.86548166E-25
  -1.72499996E-02     9.84641095E-25
  -1.72400009E-02     9.82142477E-25
  -1.72300003E-02     9.79316580E-25
  -1.72199998E-02     9.76449366E-25
  -1.72099993E-02     9.73817036E-25
  -1.72000006E-02     9.71655557E-25
  -1.71900000E-02     9.70136408E-25
  -1.71799995E-02     9.69350111E-25
  -1.71700008E-02     9.69298934E-25
  -1.71600003E-02     9.69900046E-25
  -1.71499997E-02     9.70998041E-25
  -1.71399992E-02     9.72385845E-25
  -1.71300005E-02     9.73829559E-25
  -1.71200000E-02     9.75096963E-25
  -1.71099994E-02     9.75983938E-25
  -1.71000008E-02     9.76338334E-25
  -1.70900002E-02     9.76076136E-25
  -1.70799997E-02     9.75190147E-25
  -1.70699991E-02     9.73750673E-25
  -1.70600004E-02     9.71895765E-25
  -1.70499999E-02     9.69816131E-25
  -1.70399994E-02     9.67732848E-25
  -1.70300007E-02     9.65872812E-25
  -1.70200001E-02     9.64443889E-25
  -1.70099996E-02     9.63611542E-25
  -1.70000009E-02     9.63480986E-25
  -1.69900004E-02     9.64085155E-25
  -1.69799998E-02     9.65381943E-25
  -1.69699993E-02     9.67256770E-25
  -1.69600006E-02     9.69535592E-25
  -1.69500001E-02     9.72001670E-25
  -1.69399995E-02     9.74418838E-25
  -1.69300009E-02     9.76555172E-25
  -1.69200003E-02     9.78207244E-25
  -1.69099998E-02     9.79220634E-25
  -1.68999992E-02     9.79505512E-25
  -1.68900006E-02     9.79045211E-25
  -1.68800000E-02     9.77896926E-25
  -1.68699995E-02     9.76184605E-25
  -1.68600008E-02     9.74084361E-25
  -1.68500002E-02     9.71805342E-25
  -1.68399997E-02     9.69566653E-25
  -1.68299992E-02     9.67573202E-25
  -1.68200005E-02     9.65994593E-25
  -1.68099999E-02     9.64947084E-25
  -1.67999994E-02     9.64482642E-25
  -1.67900007E-02     9.64584602E-25
  -1.67800002E-02     9.65172205E-25
  -1.67699996E-02     9.66111837E-25
  -1.67599991E-02     9.67233992E-25
  -1.67500004E-02     9.68355357E-25
  -1.67399999E-02     9.69300807E-25
  -1.67299993E-02     9.69925881E-25
  -1.67200007E-02     9.70134041E-25
  -1.67100001E-02     9.69890185E-25
  -1.66999996E-02     9.69224682E-25
  -1.66900009E-02     9.68231408E-25
  -1.66800003E-02     9.67056498E-25
  -1.66699998E-02     9.65881194E-25
  -1.66599993E-02     9.64900442E-25
  -1.66500006E-02     9.64298246E-25
  -1.66400000E-02     9.64224980E-25
  -1.66299995E-02     9.64778366E-25
  -1.66200008E-02     9.65989465E-25
  -1.66100003E-02     9.67817650E-25
  -1.65999997E-02     9.70153369E-25
  -1.65899992E-02     9.72829678E-25
  -1.65800005E-02     9.75640882E-25
  -1.65700000E-02     9.78365608E-25
  -1.65599994E-02     9.80792341E-25
  -1.65500008E-02     9.82743884E-25
  -1.65400002E-02     9.84097767E-25
  -1.65299997E-02     9.84800346E-25
  -1.65199991E-02     9.84871146E-25
  -1.65100005E-02     9.84400295E-25
  -1.64999999E-02     9.83535013E-25
  -1.64899994E-02     9.82460683E-25
  -1.64800007E-02     9.81377380E-25
  -1.64700001E-02     9.80473937E-25
  -1.64599996E-02     9.79904084E-25
  -1.64500009E-02     9.79767315E-25
  -1.64400004E-02     9.80096763E-25
  -1.64299998E-02     9.80854464E-25
  -1.64199993E-02     9.81938063E-25
  -1.64100006E-02     9.83193338E-25
  -1.64000001E-02     9.84434315E-25
  -1.63899995E-02     9.85467723E-25
  -1.63800009E-02     9.86117941E-25
  -1.63700003E-02     9.86249582E-25
  -1.63599998E-02     9.85784746E-25
  -1.63499992E-02     9.84714065E-25
  -1.63400006E-02     9.83097886E-25
  -1.63300000E-02     9.81059272E-25
  -1.63199995E-02     9.78769702E-25
  -1.63100008E-02     9.76427672E-25
  -1.63000003E-02     9.74235527E-25
  -1.62899997E-02     9.72374012E-25
  -1.62799992E-02     9.70981475E-25
  -1.62700005E-02     9.70137197E-25
  -1.62599999E-02     9.69852320E-25
  -1.62499994E-02     9.70070045E-25
  -1.62400007E-02     9.70672538E-25
  -1.62300002E-02     9.71496897E-25
  -1.62199996E-02     9.72354389E-25
  -1.62099991E-02     9.73053517E-25
  -1.62000004E-02     9.73423394E-25
  -1.61899999E-02     9.73333168E-25
  -1.61799993E-02     9.72707602E-25
  -1.61700007E-02     9.71534565E-25
  -1.61600001E-02     9.69866420E-25
  -1.61499996E-02     9.67813015E-25
  -1.61400009E-02     9.65528573E-25
  -1.61300004E-02     9.63193840E-25
  -1.61199998E-02     9.60996468E-25
  -1.61099993E-02     9.59110696E-25
  -1.61000006E-02     9.57679210E-25
  -1.60900000E-02     9.56799334E-25
  -1.60799995E-02     9.56513569E-25
  -1.60700008E-02     9.56807814E-25
  -1.60600003E-02     9.57613734E-25
  -1.60499997E-02     9.58818128E-25
  -1.60399992E-02     9.60276337E-25
  -1.60300005E-02     9.61828026E-25
  -1.60200000E-02     9.63315128E-25
  -1.60099994E-02     9.64597618E-25
  -1.60000008E-02     9.65568115E-25
  -1.59900002E-02     9.66161535E-25
  -1.59799997E-02     9.66360427E-25
  -1.59699991E-02     9.66196344E-25
  -1.59600005E-02     9.65744326E-25
  -1.59499999E-02     9.65114618E-25
  -1.59399994E-02     9.64440241E-25
  -1.59300007E-02     9.63862696E-25
  -1.59200002E-02     9.63517076E-25
  -1.59099996E-02     9.63517865E-25
  -1.59000009E-02     9.63947301E-25
  -1.58900004E-02     9.64846898E-25
  -1.58799998E-02     9.66212713E-25
  -1.58699993E-02     9.67995538E-25
  -1.58600006E-02     9.70104656E-25
  -1.58500001E-02     9.72416117E-25
  -1.58399995E-02     9.74783982E-25
  -1.58300009E-02     9.77053436E-25
  -1.58200003E-02     9.79075878E-25
  -1.58099998E-02     9.80723612E-25
  -1.57999992E-02     9.81902071E-25
  -1.57900006E-02     9.82560178E-25
  -1.57800000E-02     9.82695764E-25
  -1.57699995E-02     9.82356357E-25
  -1.57600008E-02     9.81635436E-25
  -1.57500003E-02     9.80662771E-25
  -1.57399997E-02     9.79591300E-25
  -1.57299992E-02     9.78580770E-25
  -1.57200005E-02     9.77780273E-25
  -1.57099999E-02     9.77311295E-25
  -1.56999994E-02     9.77252821E-25
  -1.56900007E-02     9.77631080E-25
  -1.56800002E-02     9.78414616E-25
  -1.56699996E-02     9.79515866E-25
  -1.56599991E-02     9.80799047E-25
  -1.56500004E-02     9.82093962E-25
  -1.56399999E-02     9.83214046E-25
  -1.56299993E-02     9.83976184E-25
  -1.56199997E-02     9.84222703E-25
  -1.56100001E-02     9.83839218E-25
  -1.55999996E-02     9.82770410E-25
  -1.55900000E-02     9.81028013E-25
  -1.55800004E-02     9.78693281E-25
  -1.55699998E-02     9.75909884E-25
  -1.55600002E-02     9.72870994E-25
  -1.55499997E-02     9.69798874E-25
  -1.55400001E-02     9.66921405E-25
  -1.55300004E-02     9.64447143E-25
  -1.55199999E-02     9.62541255E-25
  -1.55100003E-02     9.61307378E-25
  -1.54999997E-02     9.60775489E-25
  -1.54900001E-02     9.60897762E-25
  -1.54799996E-02     9.61554982E-25
  -1.54700000E-02     9.62569457E-25
  -1.54600004E-02     9.63726716E-25
  -1.54499998E-02     9.64801440E-25
  -1.54400002E-02     9.65585174E-25
  -1.54299997E-02     9.65912452E-25
  -1.54200001E-02     9.65681020E-25
  -1.54100005E-02     9.64865831E-25
  -1.53999999E-02     9.63522401E-25
  -1.53900003E-02     9.61781878E-25
  -1.53799998E-02     9.59835068E-25
  -1.53700002E-02     9.57910149E-25
  -1.53599996E-02     9.56245751E-25
  -1.53500000E-02     9.55060980E-25
  -1.53400004E-02     9.54528696E-25
  -1.53299998E-02     9.54754508E-25
  -1.53200002E-02     9.55761785E-25
  -1.53099997E-02     9.57489094E-25
  -1.53000001E-02     9.59796217E-25
  -1.52899995E-02     9.62480710E-25
  -1.52799999E-02     9.65302170E-25
  -1.52700003E-02     9.68010132E-25
  -1.52599998E-02     9.70374348E-25
  -1.52500002E-02     9.72211605E-25
  -1.52399996E-02     9.73406631E-25
  -1.52300000E-02     9.73925011E-25
  -1.52200004E-02     9.73814965E-25
  -1.52099999E-02     9.73199949E-25
  -1.52000003E-02     9.72260219E-25
  -1.51899997E-02     9.71209358E-25
  -1.51800001E-02     9.70264598E-25
  -1.51699996E-02     9.69619803E-25
  -1.51600000E-02     9.69419334E-25
  -1.51500003E-02     9.69741189E-25
  -1.51399998E-02     9.70587341E-25
  -1.51300002E-02     9.71885115E-25
  -1.51199996E-02     9.73498139E-25
  -1.51100000E-02     9.75245170E-25
  -1.51000004E-02     9.76924556E-25
  -1.50899999E-02     9.78341350E-25
  -1.50800003E-02     9.79332455E-25
  -1.50699997E-02     9.79788220E-25
  -1.50600001E-02     9.79665946E-25
  -1.50499996E-02     9.78994231E-25
  -1.50400000E-02     9.77868527E-25
  -1.50300004E-02     9.76437928E-25
  -1.50199998E-02     9.74884759E-25
  -1.50100002E-02     9.73401306E-25
  -1.49999997E-02     9.72164471E-25
  -1.49900001E-02     9.71314177E-25
  -1.49800004E-02     9.70935130E-25
  -1.49699999E-02     9.71048035E-25
  -1.49600003E-02     9.71606943E-25
  -1.49499997E-02     9.72507034E-25
  -1.49400001E-02     9.73598423E-25
  -1.49299996E-02     9.74706477E-25
  -1.49200000E-02     9.75654589E-25
  -1.49100004E-02     9.76287551E-25
  -1.48999998E-02     9.76491274E-25
  -1.48900002E-02     9.76207482E-25
  -1.48799997E-02     9.75441596E-25
  -1.48700001E-02     9.74261559E-25
  -1.48600005E-02     9.72789643E-25
  -1.48499999E-02     9.71185790E-25
  -1.48400003E-02     9.69627593E-25
  -1.48299998E-02     9.68286233E-25
  -1.48200002E-02     9.67305581E-25
  -1.48099996E-02     9.66781777E-25
  -1.48000000E-02     9.66751110E-25
  -1.47900004E-02     9.67184885E-25
  -1.47799999E-02     9.67992186E-25
  -1.47700002E-02     9.69031806E-25
  -1.47599997E-02     9.70130196E-25
  -1.47500001E-02     9.71102763E-25
  -1.47399995E-02     9.71778915E-25
  -1.47299999E-02     9.72024547E-25
  -1.47200003E-02     9.71759884E-25
  -1.47099998E-02     9.70971812E-25
  -1.47000002E-02     9.69717227E-25
  -1.46899996E-02     9.68118896E-25
  -1.46800000E-02     9.66351552E-25
  -1.46700004E-02     9.64622270E-25
  -1.46599999E-02     9.63145621E-25
  -1.46500003E-02     9.62118229E-25
  -1.46399997E-02     9.61693920E-25
  -1.46300001E-02     9.61964401E-25
  -1.46199996E-02     9.62946237E-25
  -1.46100000E-02     9.64576615E-25
  -1.46000003E-02     9.66719851E-25
  -1.45899998E-02     9.69181492E-25
  -1.45800002E-02     9.71731781E-25
  -1.45699997E-02     9.74131791E-25
  -1.45600000E-02     9.76162615E-25
  -1.45500004E-02     9.77652773E-25
  -1.45399999E-02     9.78499418E-25
  -1.45300003E-02     9.78681645E-25
  -1.45199997E-02     9.78264338E-25
  -1.45100001E-02     9.77390674E-25
  -1.44999996E-02     9.76265660E-25
  -1.44900000E-02     9.75131180E-25
  -1.44800004E-02     9.74237006E-25
  -1.44699998E-02     9.73809640E-25
  -1.44600002E-02     9.74024408E-25
  -1.44499997E-02     9.74982578E-25
  -1.44400001E-02     9.76697857E-25
  -1.44300004E-02     9.79092839E-25
  -1.44199999E-02     9.82005412E-25
  -1.44100003E-02     9.85206807E-25
  -1.43999998E-02     9.88425557E-25
  -1.43900001E-02     9.91378657E-25
  -1.43799996E-02     9.93802137E-25
  -1.43700000E-02     9.95481227E-25
  -1.43600004E-02     9.96274723E-25
  -1.43499998E-02     9.96131150E-25
  -1.43400002E-02     9.95094784E-25
  -1.43299997E-02     9.93300717E-25
  -1.43200001E-02     9.90960364E-25
  -1.43100005E-02     9.88338289E-25
  -1.42999999E-02     9.85722820E-25
  -1.42900003E-02     9.83394300E-25
  -1.42799998E-02     9.81594514E-25
  -1.42700002E-02     9.80500364E-25
  -1.42599996E-02     9.80204245E-25
  -1.42500000E-02     9.80705468E-25
  -1.42400004E-02     9.81910256E-25
  -1.42299999E-02     9.83643087E-25
  -1.42200002E-02     9.85666910E-25
  -1.42099997E-02     9.87710651E-25
  -1.42000001E-02     9.89499788E-25
  -1.41899996E-02     9.90787800E-25
  -1.41799999E-02     9.91384672E-25
  -1.41700003E-02     9.91178878E-25
  -1.41599998E-02     9.90150993E-25
  -1.41500002E-02     9.88377140E-25
  -1.41399996E-02     9.86021108E-25
  -1.41300000E-02     9.83317879E-25
  -1.41200004E-02     9.80548189E-25
  -1.41099999E-02     9.78007859E-25
  -1.41000003E-02     9.75975063E-25
  -1.40899997E-02     9.74678866E-25
  -1.40800001E-02     9.74272603E-25
  -1.40699996E-02     9.74815734E-25
  -1.40600000E-02     9.76265167E-25
  -1.40500003E-02     9.78477429E-25
  -1.40399998E-02     9.81223256E-25
  -1.40300002E-02     9.84210771E-25
  -1.40199997E-02     9.87116935E-25
  -1.40100000E-02     9.89622752E-25
  -1.40000004E-02     9.91448077E-25
  -1.39899999E-02     9.92384159E-25
  -1.39800003E-02     9.92316613E-25
  -1.39699997E-02     9.91239522E-25
  -1.39600001E-02     9.89256326E-25
  -1.39499996E-02     9.86568479E-25
  -1.39400000E-02     9.83452479E-25
  -1.39300004E-02     9.80229292E-25
  -1.39199998E-02     9.77226197E-25
  -1.39100002E-02     9.74740693E-25