  -2.19999999E-02     1.00000002E-24
  -2.19899993E-02     9.99999231E-25
  -2.19800007E-02     9.99997554E-25
  -2.19700001E-02     9.99995089E-25
  -2.19599996E-02     9.99992032E-25
  -2.19500009E-02     9.99988384E-25
  -2.19400004E-02     9.99984341E-25
  -2.19299998E-02     9.99980199E-25
  -2.19199993E-02     9.99976058E-25
  -2.19100006E-02     9.99972015E-25
  -2.19000001E-02     9.99968268E-25
  -2.18899995E-02     9.99964915E-25
  -2.18800008E-02     9.99962154E-25
  -2.18700003E-02     9.99959886E-25
  -2.18599997E-02     9.99958210E-25
  -2.18499992E-02     9.99957027E-25
  -2.18400005E-02     9.99956336E-25
  -2.18300000E-02     9.99956041E-25
  -2.18199994E-02     9.99956041E-25
  -2.18100008E-02     9.99956238E-25
  -2.18000002E-02     9.99956336E-25
  -2.17899997E-02     9.99956238E-25
  -2.17799991E-02     9.99955843E-25
  -2.17700005E-02     9.99955054E-25
  -2.17599999E-02     9.99953674E-25
  -2.17499994E-02     9.99951800E-25
  -2.17400007E-02     9.99949237E-25
  -2.17300002E-02     9.99946081E-25
  -2.17199996E-02     9.99942235E-25
  -2.17099991E-02     9.99937897E-25
  -2.17000004E-02     9.99933164E-25
  -2.16899998E-02     9.99928135E-25
  -2.16799993E-02     9.99922908E-25
  -2.16700006E-02     9.99917584E-25
  -2.16600001E-02     9.99912555E-25
  -2.16499995E-02     9.99907920E-25
  -2.16400009E-02     9.99903680E-25
  -2.16300003E-02     9.99900130E-25
  -2.16199998E-02     9.99897172E-25
  -2.16099992E-02     9.99895002E-25
  -2.16000006E-02     9.99893523E-25
  -2.15900000E-02     9.99892734E-25
  -2.15799995E-02     9.99892537E-25
  -2.15700008E-02     9.99892932E-25
  -2.15600003E-02     9.99893721E-25
  -2.15499997E-02     9.99894707E-25
  -2.15399992E-02     9.99895693E-25
  -2.15300005E-02     9.99896679E-25
  -2.15200000E-02     9.99897468E-25
  -2.15099994E-02     9.99897862E-25
  -2.15000007E-02     9.99897763E-25
  -2.14900002E-02     9.99897073E-25
  -2.14799996E-02     9.99895791E-25
  -2.14699991E-02     9.99893819E-25
  -2.14600004E-02     9.99891255E-25
  -2.14499999E-02     9.99888100E-25
  -2.14399993E-02     9.99884550E-25
  -2.14300007E-02     9.99880507E-25
  -2.14200001E-02     9.99876267E-25
  -2.14099996E-02     9.99872027E-25
  -2.14000009E-02     9.99867787E-25
  -2.13900004E-02     9.99863842E-25
  -2.13799998E-02     9.99860391E-25
  -2.13699993E-02     9.99857433E-25
  -2.13600006E-02     9.99855066E-25
  -2.13500001E-02     9.99853291E-25
  -2.13399995E-02     9.99852207E-25
  -2.13300008E-02     9.99851812E-25
  -2.13200003E-02     9.99852010E-25
  -2.13099997E-02     9.99852798E-25
  -2.12999992E-02     9.99853883E-25
  -2.12900005E-02     9.99855165E-25
  -2.12800000E-02     9.99856545E-25
  -2.12699994E-02     9.99857926E-25
  -2.12600008E-02     9.99859011E-25
  -2.12500002E-02     9.99859701E-25
  -2.12399997E-02     9.99859997E-25
  -2.12299991E-02     9.99859602E-25
  -2.12200005E-02     9.99858616E-25
  -2.12099999E-02     9.99857039E-25
  -2.11999994E-02     9.99854869E-25
  -2.11900007E-02     9.99852108E-25
  -2.11800002E-02     9.99848953E-25
  -2.11699996E-02     9.99845403E-25
  -2.11599991E-02     9.99841557E-25
  -2.11500004E-02     9.99837810E-25
  -2.11399999E-02     9.99834260E-25
  -2.11299993E-02     9.99830809E-25
  -2.11200006E-02     9.99827851E-25
  -2.11100001E-02     9.99825484E-25
  -2.10999995E-02     9.99823709E-25
  -2.10900009E-02     9.99822723E-25
  -2.10800003E-02     9.99822427E-25
  -2.10699998E-02     9.99822723E-25
  -2.10599992E-02     9.99823709E-25
  -2.10500006E-02     9.99825188E-25
  -2.10400000E-02     9.99827160E-25
  -2.10299995E-02     9.99829330E-25
  -2.10200008E-02     9.99831696E-25
  -2.10100003E-02     9.99833964E-25
  -2.09999997E-02     9.99836134E-25
  -2.09899992E-02     9.99837909E-25
  -2.09800005E-02     9.99839289E-25
  -2.09700000E-02     9.99840078E-25
  -2.09599994E-02     9.99840275E-25
  -2.09500007E-02     9.99839881E-25
  -2.09400002E-02     9.99838796E-25
  -2.09299996E-02     9.99837120E-25
  -2.09199991E-02     9.99835148E-25
  -2.09100004E-02     9.99832682E-25
  -2.08999999E-02     9.99830119E-25
  -2.08899993E-02     9.99827456E-25
  -2.08800007E-02     9.99824695E-25
  -2.08700001E-02     9.99822230E-25
  -2.08599996E-02     9.99820159E-25
  -2.08500009E-02     9.99818582E-25
  -2.08400004E-02     9.99817595E-25
  -2.08299998E-02     9.99817201E-25
  -2.08199993E-02     9.99817497E-25
  -2.08100006E-02     9.99818483E-25
  -2.08000001E-02     9.99820061E-25
  -2.07899995E-02     9.99822230E-25
  -2.07800008E-02     9.99824794E-25
  -2.07700003E-02     9.99827555E-25
  -2.07599998E-02     9.99830513E-25
  -2.07499992E-02     9.99833471E-25
  -2.07400005E-02     9.99836232E-25
  -2.07300000E-02     9.99838697E-25
  -2.07199994E-02     9.99840670E-25
  -2.07100008E-02     9.99842149E-25
  -2.07000002E-02     9.99843036E-25
  -2.06899997E-02     9.99843332E-25
  -2.06799991E-02     9.99842938E-25
  -2.06700005E-02     9.99841952E-25
  -2.06599999E-02     9.99840472E-25
  -2.06499994E-02     9.99838697E-25
  -2.06400007E-02     9.99836627E-25
  -2.06300002E-02     9.99834556E-25
  -2.06199996E-02     9.99832485E-25
  -2.06099991E-02     9.99830612E-25
  -2.06000004E-02     9.99829133E-25
  -2.05899999E-02     9.99828344E-25
  -2.05799993E-02     9.99827949E-25
  -2.05700006E-02     9.99828245E-25
  -2.05600001E-02     9.99829330E-25
  -2.05499995E-02     9.99831105E-25
  -2.05400009E-02     9.99833471E-25
  -2.05300003E-02     9.99836430E-25
  -2.05199998E-02     9.99839782E-25
  -2.05099992E-02     9.99843529E-25
  -2.05000006E-02     9.99847474E-25
  -2.04900000E-02     9.99851418E-25
  -2.04799995E-02     9.99855165E-25
  -2.04700008E-02     9.99858616E-25
  -2.04600003E-02     9.99861673E-25
  -2.04499997E-02     9.99864138E-25
  -2.04399992E-02     9.99866012E-25
  -2.04300005E-02     9.99867195E-25
  -2.04200000E-02     9.99867787E-25
  -2.04099994E-02     9.99867688E-25
  -2.04000007E-02     9.99866998E-25
  -2.03900002E-02     9.99865913E-25
  -2.03799997E-02     9.99864335E-25
  -2.03699991E-02     9.99862758E-25
  -2.03600004E-02     9.99861081E-25
  -2.03499999E-02     9.99859602E-25
  -2.03399993E-02     9.99858518E-25
  -2.03300007E-02     9.99857729E-25
  -2.03200001E-02     9.99857433E-25
  -2.03099996E-02     9.99857827E-25
  -2.03000009E-02     9.99858813E-25
  -2.02900004E-02     9.99860490E-25
  -2.02799998E-02     9.99862758E-25
  -2.02699993E-02     9.99865617E-25
  -2.02600006E-02     9.99868773E-25
  -2.02500001E-02     9.99872421E-25
  -2.02399995E-02     9.99876267E-25
  -2.02300008E-02     9.99880113E-25
  -2.02200003E-02     9.99883761E-25
  -2.02099998E-02     9.99887212E-25
  -2.01999992E-02     9.99890171E-25
  -2.01900005E-02     9.99892537E-25
  -2.01800000E-02     9.99894411E-25
  -2.01699995E-02     9.99895693E-25
  -2.01600008E-02     9.99896284E-25
  -2.01500002E-02     9.99896383E-25
  -2.01399997E-02     9.99895890E-25
  -2.01299991E-02     9.99895002E-25
  -2.01200005E-02     9.99893918E-25
  -2.01099999E-02     9.99892537E-25
  -2.00999994E-02     9.99891255E-25
  -2.00900007E-02     9.99890269E-25
  -2.00800002E-02     9.99889579E-25
  -2.00699996E-02     9.99889283E-25
  -2.00599991E-02     9.99889678E-25
  -2.00500004E-02     9.99890861E-25
  -2.00399999E-02     9.99892636E-25
  -2.00299993E-02     9.99895298E-25
  -2.00200006E-02     9.99898651E-25
  -2.00100001E-02     9.99902595E-25
  -1.99999996E-02     9.99907033E-25
  -1.99900009E-02     9.99911963E-25
  -1.99800003E-02     9.99917091E-25
  -1.99699998E-02     9.99922415E-25
  -1.99599992E-02     9.99927543E-25
  -1.99500006E-02     9.99932572E-25
  -1.99400000E-02     9.99937009E-25
  -1.99299995E-02     9.99941052E-25
  -1.99200008E-02     9.99944405E-25
  -1.99100003E-02     9.99947067E-25
  -1.98999997E-02     9.99949039E-25
  -1.98899992E-02     9.99950321E-25
  -1.98800005E-02     9.99951012E-25
  -1.98700000E-02     9.99951209E-25
  -1.98599994E-02     9.99950913E-25
  -1.98500007E-02     9.99950321E-25
  -1.98400002E-02     9.99949434E-25
  -1.98299997E-02     9.99948744E-25
  -1.98199991E-02     9.99948152E-25
  -1.98100004E-02     9.99947758E-25
  -1.97999999E-02     9.99947758E-25
  -1.97899994E-02     9.99948349E-25
  -1.97800007E-02     9.99949532E-25
  -1.97700001E-02     9.99951110E-25
  -1.97599996E-02     9.99953280E-25
  -1.97500009E-02     9.99955843E-25
  -1.97400004E-02     9.99958802E-25
  -1.97299998E-02     9.99961957E-25
  -1.97199993E-02     9.99965408E-25
  -1.97100006E-02     9.99968662E-25
  -1.97000001E-02     9.99971818E-25
  -1.96899995E-02     9.99974579E-25
  -1.96800008E-02     9.99976945E-25
  -1.96700003E-02     9.99978720E-25
  -1.96599998E-02     9.99980002E-25
  -1.96499992E-02     9.99980495E-25
  -1.96400005E-02     9.99980199E-25
  -1.96300000E-02     9.99979411E-25
  -1.96199995E-02     9.99977931E-25
  -1.96100008E-02     9.99975861E-25
  -1.96000002E-02     9.99973494E-25
  -1.95899997E-02     9.99970832E-25
  -1.95799991E-02     9.99968071E-25
  -1.95700005E-02     9.99965507E-25
  -1.95599999E-02     9.99963140E-25
  -1.95499994E-02     9.99961070E-25
  -1.95400007E-02     9.99959590E-25
  -1.95300002E-02     9.99958703E-25
  -1.95199996E-02     9.99958407E-25
  -1.95099991E-02     9.99958802E-25
  -1.95000004E-02     9.99959886E-25
  -1.94899999E-02     9.99961661E-25
  -1.94799993E-02     9.99964028E-25
  -1.94700006E-02     9.99966789E-25
  -1.94600001E-02     9.99969944E-25
  -1.94499996E-02     9.99973198E-25
  -1.94400009E-02     9.99976452E-25
  -1.94300003E-02     9.99979608E-25
  -1.94199998E-02     9.99982467E-25
  -1.94099993E-02     9.99984933E-25
  -1.94000006E-02     9.99987102E-25
  -1.93900000E-02     9.99988482E-25
  -1.93799995E-02     9.99989469E-25
  -1.93700008E-02     9.99989764E-25
  -1.93600003E-02     9.99989666E-25
  -1.93499997E-02     9.99989271E-25
  -1.93399992E-02     9.99988384E-25
  -1.93300005E-02     9.99987299E-25
  -1.93200000E-02     9.99986313E-25
  -1.93099994E-02     9.99985327E-25
  -1.93000007E-02     9.99984637E-25
  -1.92900002E-02     9.99984242E-25
  -1.92799997E-02     9.99984341E-25
  -1.92699991E-02     9.99985031E-25
  -1.92600004E-02     9.99986313E-25
  -1.92499999E-02     9.99988187E-25
  -1.92399994E-02     9.99990750E-25
  -1.92300007E-02     9.99993906E-25
  -1.92200001E-02     9.99997357E-25
  -1.92099996E-02     1.00000130E-24
  -1.92000009E-02     1.00000534E-24
  -1.91900004E-02     1.00000939E-24
  -1.91799998E-02     1.00001343E-24
  -1.91699993E-02     1.00001728E-24
  -1.91600006E-02     1.00002073E-24
  -1.91500001E-02     1.00002359E-24
  -1.91399995E-02     1.00002585E-24
  -1.91300008E-02     1.00002753E-24
  -1.91200003E-02     1.00002832E-24
  -1.91099998E-02     1.00002852E-24
  -1.90999992E-02     1.00002802E-24
  -1.90900005E-02     1.00002684E-24
  -1.90800000E-02     1.00002507E-24
  -1.90699995E-02     1.00002300E-24
  -1.90600008E-02     1.00002053E-24
  -1.90500002E-02     1.00001797E-24
  -1.90399997E-02     1.00001540E-24
  -1.90299992E-02     1.00001284E-24
  -1.90200005E-02     1.00001057E-24
  -1.90099999E-02     1.00000860E-24
  -1.89999994E-02     1.00000702E-24
  -1.89900007E-02     1.00000584E-24
  -1.89800002E-02     1.00000505E-24
  -1.89699996E-02     1.00000456E-24
  -1.89599991E-02     1.00000436E-24
  -1.89500004E-02     1.00000436E-24
  -1.89399999E-02     1.00000446E-24
  -1.89299993E-02     1.00000465E-24
  -1.89200006E-02     1.00000456E-24
  -1.89100001E-02     1.00000436E-24
  -1.88999996E-02     1.00000357E-24
  -1.88900009E-02     1.00000239E-24
  -1.88800003E-02     1.00000061E-24
  -1.88699998E-02     9.99998245E-25
  -1.88599993E-02     9.99995385E-25
  -1.88500006E-02     9.99991934E-25
  -1.88400000E-02     9.99987989E-25
  -1.88299995E-02     9.99983749E-25
  -1.88200008E-02     9.99979312E-25
  -1.88100003E-02     9.99974776E-25
  -1.87999997E-02     9.99970339E-25
  -1.87899992E-02     9.99966099E-25
  -1.87800005E-02     9.99962253E-25
  -1.87700000E-02     9.99959097E-25
  -1.87599994E-02     9.99956534E-25
  -1.87500007E-02     9.99954857E-25
  -1.87400002E-02     9.99953871E-25
  -1.87299997E-02     9.99953871E-25
  -1.87199991E-02     9.99954759E-25
  -1.87100004E-02     9.99956435E-25
  -1.86999999E-02     9.99958900E-25
  -1.86899994E-02     9.99961858E-25
  -1.86800007E-02     9.99965211E-25
  -1.86700001E-02     9.99968761E-25
  -1.86599996E-02     9.99972311E-25
  -1.86500009E-02     9.99975565E-25
  -1.86400004E-02     9.99978424E-25
  -1.86299998E-02     9.99980692E-25
  -1.86199993E-02     9.99982172E-25
  -1.86100006E-02     9.99982665E-25
  -1.86000001E-02     9.99982073E-25
  -1.85899995E-02     9.99980397E-25
  -1.85800008E-02     9.99977438E-25
  -1.85700003E-02     9.99973297E-25
  -1.85599998E-02     9.99968071E-25
  -1.85499992E-02     9.99961957E-25
  -1.85400005E-02     9.99954759E-25
  -1.85300000E-02     9.99946969E-25
  -1.85199995E-02     9.99938488E-25
  -1.85100008E-02     9.99929811E-25
  -1.85000002E-02     9.99920838E-25
  -1.84899997E-02     9.99912160E-25
  -1.84799992E-02     9.99903779E-25
  -1.84700005E-02     9.99895890E-25
  -1.84599999E-02     9.99888889E-25
  -1.84499994E-02     9.99882775E-25
  -1.84400007E-02     9.99877943E-25
  -1.84300002E-02     9.99874689E-25
  -1.84199996E-02     9.99873112E-25
  -1.84099991E-02     9.99873407E-25
  -1.84000004E-02     9.99875873E-25
  -1.83899999E-02     9.99880803E-25
  -1.83799993E-02     9.99888199E-25
  -1.83700006E-02     9.99898454E-25
  -1.83600001E-02     9.99911766E-25
  -1.83499996E-02     9.99928332E-25
  -1.83400009E-02     9.99948448E-25
  -1.83300003E-02     9.99972212E-25
  -1.83199998E-02     9.99999625E-25
  -1.83099993E-02     1.00003098E-24
  -1.83000006E-02     1.00006638E-24
  -1.82900000E-02     1.00010553E-24
  -1.82799995E-02     1.00014833E-24
  -1.82700008E-02     1.00019477E-24
  -1.82600003E-02     1.00024427E-24
  -1.82499997E-02     1.00029634E-24
  -1.82399992E-02     1.00035037E-24
  -1.82300005E-02     1.00040579E-24
  -1.82200000E-02     1.00046150E-24
  -1.82099994E-02     1.00051653E-24
  -1.82000007E-02     1.00056987E-24
  -1.81900002E-02     1.00061987E-24
  -1.81799997E-02     1.00066542E-24
  -1.81699991E-02     1.00070497E-24
  -1.81600004E-02     1.00073701E-24
  -1.81499999E-02     1.00075989E-24
  -1.81399994E-02     1.00077222E-24
  -1.81300007E-02     1.00077222E-24
  -1.81200001E-02     1.00075871E-24
  -1.81099996E-02     1.00073021E-24
  -1.81000009E-02     1.00068554E-24
  -1.80900004E-02     1.00062371E-24
  -1.80799998E-02     1.00054384E-24
  -1.80699993E-02     1.00044523E-24
  -1.80600006E-02     1.00032779E-24
  -1.80500001E-02     1.00019132E-24
  -1.80399995E-02     1.00003591E-24
  -1.80300009E-02     9.99862265E-25
  -1.80200003E-02     9.99671262E-25
  -1.80099998E-02     9.99463890E-25
  -1.79999992E-02     9.99241727E-25
  -1.79900005E-02     9.99006449E-25
  -1.79800000E-02     9.98760325E-25
  -1.79699995E-02     9.98505523E-25
  -1.79600008E-02     9.98244804E-25
  -1.79500002E-02     9.97981029E-25
  -1.79399997E-02     9.97717253E-25
  -1.79299992E-02     9.97456831E-25
  -1.79200005E-02     9.97203409E-25
  -1.79099999E-02     9.96960440E-25
  -1.78999994E-02     9.96731966E-25
  -1.78900007E-02     9.96521439E-25
  -1.78800002E-02     9.96332901E-25
  -1.78699996E-02     9.96170198E-25
  -1.78599991E-02     9.96037177E-25
  -1.78500004E-02     9.95937682E-25
  -1.78399999E-02     9.95875164E-25
  -1.78299993E-02     9.95852978E-25
  -1.78200006E-02     9.95874474E-25
  -1.78100001E-02     9.95942415E-25
  -1.77999996E-02     9.96059462E-25
  -1.77900009E-02     9.96227588E-25
  -1.77800003E-02     9.96448568E-25
  -1.77699998E-02     9.96723584E-25
  -1.77599993E-02     9.97053427E-25
  -1.77500006E-02     9.97437997E-25
  -1.77400000E-02     9.97876800E-25
  -1.77299995E-02     9.98368557E-25
  -1.77200008E-02     9.98911293E-25
  -1.77100003E-02     9.99502347E-25
  -1.76999997E-02     1.00013846E-24
  -1.76899992E-02     1.00081550E-24
  -1.76800005E-02     1.00152854E-24
  -1.76700000E-02     1.00227223E-24
  -1.76599994E-02     1.00304039E-24
  -1.76500008E-02     1.00382609E-24
  -1.76400002E-02     1.00462196E-24
  -1.76299997E-02     1.00542009E-24
  -1.76199991E-02     1.00621200E-24
  -1.76100004E-02     1.00698883E-24
  -1.75999999E-02     1.00774151E-24
  -1.75899994E-02     1.00846036E-24
  -1.75800007E-02     1.00913582E-24
  -1.75700001E-02     1.00975813E-24
  -1.75599996E-02     1.01031763E-24
  -1.75500009E-02     1.01080436E-24
  -1.75400004E-02     1.01120904E-24
  -1.75299998E-02     1.01152222E-24
  -1.75199993E-02     1.01173492E-24
  -1.75100006E-02     1.01183875E-24
  -1.75000001E-02     1.01182534E-24
  -1.74899995E-02     1.01168719E-24
  -1.74800009E-02     1.01141740E-24
  -1.74700003E-02     1.01100956E-24
  -1.74599998E-02     1.01045824E-24
  -1.74499992E-02     1.00975882E-24
  -1.74400005E-02     1.00890734E-24
  -1.74300000E-02     1.00790076E-24
  -1.74199995E-02     1.00673709E-24
  -1.74100008E-02     1.00541525E-24
  -1.74000002E-02     1.00393515E-24
  -1.73899997E-02     1.00229787E-24
  -1.73799992E-02     1.00050558E-24
  -1.73700005E-02     9.98561236E-25
  -1.73599999E-02     9.96469078E-25
  -1.73499994E-02     9.94234531E-25
  -1.73400007E-02     9.91863708E-25
  -1.73300002E-02     9.89364202E-25
  -1.73199996E-02     9.86744494E-25
  -1.73099991E-02     9.84013753E-25
  -1.73000004E-02     9.81182334E-25
  -1.72899999E-02     9.78261478E-25
  -1.72799993E-02     9.75263018E-25
  -1.72700007E-02     9.72199674E-25
  -1.72600001E-02     9.69084856E-25
  -1.72499996E-02     9.65932174E-25
  -1.72400009E-02     9.62755924E-25
  -1.72300003E-02     9.59570701E-25
  -1.72199998E-02     9.56391296E-25
  -1.72099993E-02     9.53232598E-25
  -1.72000006E-02     9.50109596E-25
  -1.71900000E-02     9.47036983E-25
  -1.71799995E-02     9.44029451E-25
  -1.71700008E-02     9.41101002E-25
  -1.71600003E-02     9.38265639E-25
  -1.71499997E-02     9.35536673E-25
  -1.71399992E-02     9.32926727E-25
  -1.71300005E-02     9.30447731E-25
  -1.71200000E-02     9.28111125E-25
  -1.71099994E-02     9.25927361E-25
  -1.71000008E-02     9.23905905E-25
  -1.70900002E-02     9.22055435E-25
  -1.70799997E-02     9.20383641E-25
  -1.70699991E-02     9.18897131E-25
  -1.70600004E-02     9.17601526E-25
  -1.70499999E-02     9.16501558E-25
  -1.70399994E-02     9.15600580E-25
  -1.70300007E-02     9.14901058E-25
  -1.70200001E-02     9.14403977E-25
  -1.70099996E-02     9.14109732E-25
  -1.70000009E-02     9.14017238E-25
  -1.69900004E-02     9.14124326E-25
  -1.69799998E-02     9.14427938E-25
  -1.69699993E-02     9.14923540E-25
  -1.69600006E-02     9.15605708E-25
  -1.69500001E-02     9.16468031E-25
  -1.69399995E-02     9.17503017E-25
  -1.69300009E-02     9.18702085E-25
  -1.69200003E-02     9.20055672E-25
  -1.69099998E-02     9.21553423E-25
  -1.68999992E-02     9.23184097E-25
  -1.68900006E-02     9.24935664E-25
  -1.68800000E-02     9.26795305E-25
  -1.68699995E-02     9.28749610E-25
  -1.68600008E-02     9.30784476E-25
  -1.68500002E-02     9.32885607E-25
  -1.68399997E-02     9.35037817E-25
  -1.68299992E-02     9.37226117E-25
  -1.68200005E-02     9.39435026E-25
  -1.68099999E-02     9.41649063E-25
  -1.67999994E-02     9.43852549E-25
  -1.67900007E-02     9.46030002E-25
  -1.67800002E-02     9.48166139E-25
  -1.67699996E-02     9.50245675E-25
  -1.67599991E-02     9.52253917E-25
  -1.67500004E-02     9.54176371E-25
  -1.67399999E-02     9.55999232E-25
  -1.67299993E-02     9.57709088E-25
  -1.67200007E-02     9.59293416E-25
  -1.67100001E-02     9.60739990E-25
  -1.66999996E-02     9.62037765E-25
  -1.66900009E-02     9.63176190E-25
  -1.66800003E-02     9.64145897E-25
  -1.66699998E-02     9.64938209E-25
  -1.66599993E-02     9.65545533E-25
  -1.66500006E-02     9.65961362E-25
  -1.66400000E-02     9.66179975E-25
  -1.66299995E-02     9.66197034E-25
  -1.66200008E-02     9.66009384E-25
  -1.66100003E-02     9.65614855E-25
  -1.65999997E-02     9.65012461E-25
  -1.65899992E-02     9.64202596E-25
  -1.65800005E-02     9.63186544E-25
  -1.65700000E-02     9.61967260E-25
  -1.65599994E-02     9.60548691E-25
  -1.65500008E-02     9.58936062E-25
  -1.65400002E-02     9.57135586E-25
  -1.65299997E-02     9.55155151E-25
  -1.65199991E-02     9.53003237E-25
  -1.65100005E-02     9.50689705E-25
  -1.64999999E-02     9.48225599E-25
  -1.64899994E-02     9.45622753E-25
  -1.64800007E-02     9.42893886E-25
  -1.64700001E-02     9.40052902E-25
  -1.64599996E-02     9.37114198E-25
  -1.64500009E-02     9.34092860E-25
  -1.64400004E-02     9.31004766E-25
  -1.64299998E-02     9.27865987E-25
  -1.64199993E-02     9.24693484E-25
  -1.64100006E-02     9.21504021E-25
  -1.64000001E-02     9.18314853E-25
  -1.63899995E-02     9.15143139E-25
  -1.63800009E-02     9.12006234E-25
  -1.63700003E-02     9.08921295E-25
  -1.63599998E-02     9.05904987E-25
  -1.63499992E-02     9.02974171E-25
  -1.63400006E-02     9.00144823E-25
  -1.63300000E-02     8.97432719E-25
  -1.63199995E-02     8.94852947E-25
  -1.63100008E-02     8.92419804E-25
  -1.63000003E-02     8.90146997E-25
  -1.62899997E-02     8.88047148E-25
  -1.62799992E-02     8.86132188E-25
  -1.62700005E-02     8.84412964E-25
  -1.62599999E-02     8.82899042E-25
  -1.62499994E-02     8.81599097E-25
  -1.62400007E-02     8.80520725E-25
  -1.62300002E-02     8.79669839E-25
  -1.62199996E-02     8.79051471E-25
  -1.62099991E-02     8.78669071E-25
  -1.62000004E-02     8.78524808E-25
  -1.61899999E-02     8.78619274E-25
  -1.61799993E-02     8.78952075E-25
  -1.61700007E-02     8.79520942E-25
  -1.61600001E-02     8.80322523E-25
  -1.61499996E-02     8.81351888E-25
  -1.61400009E-02     8.82603022E-25
  -1.61300004E-02     8.84068035E-25
  -1.61199998E-02     8.85738349E-25
  -1.61099993E-02     8.87603808E-25
  -1.61000006E-02     8.89653466E-25
  -1.60900000E-02     8.91874800E-25
  -1.60799995E-02     8.94254793E-25
  -1.60700008E-02     8.96779345E-25
  -1.60600003E-02     8.99433862E-25
  -1.60499997E-02     9.02202567E-25
  -1.60399992E-02     9.05069583E-25
  -1.60300005E-02     9.08018246E-25
  -1.60200000E-02     9.11031892E-25
  -1.60099994E-02     9.14093461E-25
  -1.60000008E-02     9.17185895E-25
  -1.59900002E-02     9.20291936E-25
  -1.59799997E-02     9.23394723E-25
  -1.59699991E-02     9.26477296E-25
  -1.59600005E-02     9.29523383E-25
  -1.59499999E-02     9.32516716E-25
  -1.59399994E-02     9.35441812E-25
  -1.59300007E-02     9.38283782E-25
  -1.59200002E-02     9.41028131E-25
  -1.59099996E-02     9.43661546E-25
  -1.59000009E-02     9.46171208E-25
  -1.58900004E-02     9.48545384E-25
  -1.58799998E-02     9.50773127E-25
  -1.58699993E-02     9.52844873E-25
  -1.58600006E-02     9.54751944E-25
  -1.58500001E-02     9.56486748E-25
  -1.58399995E-02     9.58042973E-25
  -1.58300009E-02     9.59415690E-25
  -1.58200003E-02     9.60601150E-25
  -1.58099998E-02     9.61596890E-25
  -1.57999992E-02     9.62402021E-25
  -1.57900006E-02     9.63016544E-25
  -1.57800000E-02     9.63441937E-25
  -1.57699995E-02     9.63681258E-25
  -1.57600008E-02     9.63738648E-25
  -1.57500003E-02     9.63619431E-25
  -1.57399997E-02     9.63330215E-25
  -1.57299992E-02     9.62878493E-25
  -1.57200005E-02     9.62273043E-25
  -1.57099999E-02     9.61523526E-25
  -1.56999994E-02     9.60640396E-25
  -1.56900007E-02     9.59634796E-25
  -1.56800002E-02     9.58518656E-25
  -1.56699996E-02     9.57304205E-25
  -1.56599991E-02     9.56004557E-25
  -1.56500004E-02     9.54632530E-25
  -1.56399999E-02     9.53201339E-25
  -1.56299993E-02     9.51724395E-25
  -1.56199997E-02     9.50214712E-25
  -1.56100001E-02     9.48685702E-25
  -1.55999996E-02     9.47150086E-25
  -1.55900000E-02     9.45620189E-25
  -1.55800004E-02     9.44108436E-25
  -1.55699998E-02     9.42626067E-25
  -1.55600002E-02     9.41184424E-25
  -1.55499997E-02     9.39793761E-25
  -1.55400001E-02     9.38463939E-25
  -1.55300004E-02     9.37204029E-25
  -1.55199999E-02     9.36022414E-25
  -1.55100003E-02     9.34926686E-25
  -1.54999997E-02     9.33923551E-25
  -1.54900001E-02     9.33019122E-25
  -1.54799996E-02     9.32218330E-25
  -1.54700000E-02     9.31525808E-25
  -1.54600004E-02     9.30944812E-25
  -1.54499998E-02     9.30478004E-25
  -1.54400002E-02     9.30127355E-25
  -1.54299997E-02     9.29893655E-25
  -1.54200001E-02     9.29777002E-25
  -1.54100005E-02     9.29776805E-25
  -1.53999999E-02     9.29891387E-25
  -1.53900003E-02     9.30118480E-25
  -1.53799998E-02     9.30455225E-25
  -1.53700002E-02     9.30897776E-25
  -1.53599996E-02     9.31441795E-25
  -1.53500000E-02     9.32082251E-25
  -1.53400004E-02     9.32813624E-25
  -1.53299998E-02     9.33629996E-25
  -1.53200002E-02     9.34524860E-25
  -1.53099997E-02     9.35491412E-25
  -1.53000001E-02     9.36522749E-25
  -1.52899995E-02     9.37611574E-25
  -1.52799999E-02     9.38750492E-25
  -1.52700003E-02     9.39932107E-25
  -1.52599998E-02     9.41149024E-25
  -1.52500002E-02     9.42393945E-25
  -1.52399996E-02     9.43659672E-25
  -1.52300000E-02     9.44939007E-25
  -1.52200004E-02     9.46225344E-25
  -1.52099999E-02     9.47512173E-25
  -1.52000003E-02     9.48792987E-25
  -1.51899997E-02     9.50062166E-25
  -1.51800001E-02     9.51313891E-25
  -1.51699996E-02     9.52543035E-25
  -1.51600000E-02     9.53744569E-25
  -1.51500003E-02     9.54914055E-25
  -1.51399998E-02     9.56047254E-25
  -1.51300002E-02     9.57140418E-25
  -1.51199996E-02     9.58189997E-25
  -1.51100000E-02     9.59192837E-25
  -1.51000004E-02     9.60146274E-25
  -1.50899999E-02     9.61047942E-25
  -1.50800003E-02     9.61895868E-25
  -1.50699997E-02     9.62687983E-25
  -1.50600001E-02     9.63423300E-25
  -1.50499996E-02     9.64100833E-25
  -1.50400000E-02     9.64719892E-25
  -1.50300004E-02     9.65280575E-25
  -1.50199998E-02     9.65782882E-25
  -1.50100002E-02     9.66227504E-25
  -1.49999997E-02     9.66615525E-25
  -1.49900001E-02     9.66948424E-25
  -1.49800004E-02     9.67227977E-25
  -1.49699999E-02     9.67456549E-25
  -1.49600003E-02     9.67636508E-25
  -1.49499997E-02     9.67770910E-25
  -1.49400001E-02     9.67863108E-25
  -1.49299996E-02     9.67916455E-25
  -1.49200000E-02     9.67934796E-25
  -1.49100004E-02     9.67922174E-25
  -1.48999998E-02     9.67882632E-25
  -1.48900002E-02     9.67820510E-25
  -1.48799997E-02     9.67739947E-25
  -1.48700001E-02     9.67645284E-25
  -1.48600005E-02     9.67540760E-25
  -1.48499999E-02     9.67430418E-25
  -1.48400003E-02     9.67318400E-25
  -1.48299998E-02     9.67208354E-25
  -1.48200002E-02     9.67103928E-25
  -1.48099996E-02     9.67008377E-25
  -1.48000000E-02     9.66924660E-25
  -1.47900004E-02     9.66855536E-25
  -1.47799999E-02     9.66803372E-25
  -1.47700002E-02     9.66770240E-25
  -1.47599997E-02     9.66757815E-25
  -1.47500001E-02     9.66767380E-25
  -1.47399995E-02     9.66800019E-25
  -1.47299999E-02     9.66856324E-25
  -1.47200003E-02     9.66936690E-25
  -1.47099998E-02     9.67041214E-25
  -1.47000002E-02     9.67169699E-25
  -1.46899996E-02     9.67321358E-25
  -1.46800000E-02     9.67495400E-25
  -1.46700004E-02     9.67690841E-25
  -1.46599999E-02     9.67906200E-25
  -1.46500003E-02     9.68139703E-25
  -1.46399997E-02     9.68389870E-25
  -1.46300001E-02     9.68654434E-25
  -1.46199996E-02     9.68931226E-25
  -1.46100000E-02     9.69217878E-25
  -1.46000003E-02     9.69511729E-25
  -1.45899998E-02     9.69810214E-25
  -1.45800002E-02     9.70110573E-25
  -1.45699997E-02     9.70409847E-25
  -1.45600000E-02     9.70705078E-25
  -1.45500004E-02     9.70993505E-25
  -1.45399999E-02     9.71272171E-25
  -1.45300003E-02     9.71538115E-25
  -1.45199997E-02     9.71788874E-25
  -1.45100001E-02     9.72021490E-25
  -1.44999996E-02     9.72233792E-25
  -1.44900000E-02     9.72423513E-25
  -1.44800004E-02     9.72588484E-25
  -1.44699998E-02     9.72727126E-25
  -1.44600002E-02     9.72838059E-25
  -1.44499997E-02     9.72919805E-25
  -1.44400001E-02     9.72972067E-25
  -1.44300004E-02     9.72994057E-25
  -1.44199999E-02     9.72985971E-25
  -1.44100003E-02     9.72948007E-25
  -1.43999998E-02     9.72880954E-25
  -1.43900001E-02     9.72785600E-25
  -1.43799996E-02     9.72663425E-25
  -1.43700000E-02     9.72516106E-25
  -1.43600004E-02     9.72345613E-25
  -1.43499998E-02     9.72154216E-25
  -1.43400002E-02     9.71944181E-25
  -1.43299997E-02     9.71718271E-25
  -1.43200001E-02     9.71479542E-25
  -1.43100005E-02     9.71230854E-25
  -1.42999999E-02     9.70975263E-25
  -1.42900003E-02     9.70716122E-25
  -1.42799998E-02     9.70456587E-25
  -1.42700002E-02     9.70199911E-25
  -1.42599996E-02     9.69949547E-25
  -1.42500000E-02     9.69708747E-25
  -1.42400004E-02     9.69480667E-25
  -1.42299999E-02     9.69268464E-25
  -1.42200002E-02     9.69075292E-25
  -1.42099997E-02     9.68904109E-25
  -1.42000001E-02     9.68757676E-25
  -1.41899996E-02     9.68638756E-25
  -1.41799999E-02     9.68549713E-25
  -1.41700003E-02     9.68493014E-25
  -1.41599998E-02     9.68470630E-25
  -1.41500002E-02     9.68484533E-25
  -1.41399996E-02     9.68536401E-25
  -1.41300000E-02     9.68627514E-25
  -1.41200004E-02     9.68759156E-25
  -1.41099999E-02     9.68932212E-25
  -1.41000003E-02     9.69147374E-25
  -1.40899997E-02     9.69405134E-25
  -1.40800001E-02     9.69705296E-25
  -1.40699996E-02     9.70048154E-25
  -1.40600000E-02     9.70433020E-25
  -1.40500003E-02     9.70859399E-25
  -1.40399998E-02     9.71326602E-25
  -1.40300002E-02     9.71833445E-25
  -1.40199997E-02     9.72378844E-25
  -1.40100000E-02     9.72961220E-25
  -1.40000004E-02     9.73579096E-25
  -1.39899999E-02     9.74230793E-25
  -1.39800003E-02     9.74914341E-25
  -1.39699997E-02     9.75627965E-25
  -1.39600001E-02     9.76369593E-25
  -1.39499996E-02     9.77137253E-25
  -1.39400000E-02     9.77928776E-25
  -1.39300004E-02     9.78741993E-25
  -1.39199998E-02     9.79574932E-25
  -1.39100002E-02     9.80425422E-25