  -2.19999999E-02     1.00000002E-24
  -2.19899993E-02     1.00000002E-24
  -2.19800007E-02     1.00000002E-24
  -2.19700001E-02     1.00000002E-24
  -2.19599996E-02     1.00000012E-24
  -2.19500009E-02     1.00000012E-24
  -2.19400004E-02     1.00000022E-24
  -2.19299998E-02     1.00000032E-24
  -2.19199993E-02     1.00000032E-24
  -2.19100006E-02     1.00000022E-24
  -2.19000001E-02     1.00000022E-24
  -2.18899995E-02     1.00000012E-24
  -2.18800008E-02     1.00000012E-24
  -2.18700003E-02     1.00000002E-24
  -2.18599997E-02     1.00000002E-24
  -2.18499992E-02     1.00000002E-24
  -2.18400005E-02     1.00000002E-24
  -2.18300000E-02     1.00000002E-24
  -2.18199994E-02     1.00000012E-24
  -2.18100008E-02     1.00000002E-24
  -2.18000002E-02     9.99999921E-25
  -2.17899997E-02     9.99999822E-25
  -2.17799991E-02     9.99999822E-25
  -2.17700005E-02     9.99999822E-25
  -2.17599999E-02     9.99999822E-25
  -2.17499994E-02     9.99999921E-25
  -2.17400007E-02     9.99999921E-25
  -2.17300002E-02     1.00000002E-24
  -2.17199996E-02     1.00000002E-24
  -2.17099991E-02     1.00000032E-24
  -2.17000004E-02     1.00000071E-24
  -2.16899998E-02     1.00000140E-24
  -2.16799993E-02     1.00000209E-24
  -2.16700006E-02     1.00000278E-24
  -2.16600001E-02     1.00000317E-24
  -2.16499995E-02     1.00000288E-24
  -2.16400009E-02     1.00000179E-24
  -2.16300003E-02     9.99999822E-25
  -2.16199998E-02     9.99996963E-25
  -2.16099992E-02     9.99993906E-25
  -2.16000006E-02     9.99991145E-25
  -2.15900000E-02     9.99989567E-25
  -2.15799995E-02     9.99990060E-25
  -2.15700008E-02     9.99993413E-25
  -2.15600003E-02     9.99999724E-25
  -2.15499997E-02     1.00000820E-24
  -2.15399992E-02     1.00001747E-24
  -2.15300005E-02     1.00002516E-24
  -2.15200000E-02     1.00002842E-24
  -2.15099994E-02     1.00002477E-24
  -2.15000007E-02     1.00001225E-24
  -2.14900002E-02     9.99990455E-25
  -2.14799996E-02     9.99960872E-25
  -2.14699991E-02     9.99926754E-25
  -2.14600004E-02     9.99893129E-25
  -2.14499999E-02     9.99866603E-25
  -2.14399993E-02     9.99853883E-25
  -2.14300007E-02     9.99860687E-25
  -2.14200001E-02     9.99890861E-25
  -2.14099996E-02     9.99944996E-25
  -2.14000009E-02     1.00001994E-24
  -2.13900004E-02     1.00010849E-24
  -2.13799998E-02     1.00020009E-24
  -2.13699993E-02     1.00028194E-24
  -2.13600006E-02     1.00034051E-24
  -2.13500001E-02     1.00036309E-24
  -2.13399995E-02     1.00034002E-24
  -2.13300008E-02     1.00026557E-24
  -2.13200003E-02     1.00013896E-24
  -2.13099997E-02     9.99964324E-25
  -2.12999992E-02     9.99749556E-25
  -2.12900005E-02     9.99504911E-25
  -2.12800000E-02     9.99240938E-25
  -2.12699994E-02     9.98966119E-25
  -2.12600008E-02     9.98684397E-25
  -2.12500002E-02     9.98394293E-25
  -2.12399997E-02     9.98087821E-25
  -2.12299991E-02     9.97750977E-25
  -2.12200005E-02     9.97365323E-25
  -2.12099999E-02     9.96911333E-25
  -2.11999994E-02     9.96370964E-25
  -2.11900007E-02     9.95731592E-25
  -2.11800002E-02     9.94989668E-25
  -2.11699996E-02     9.94152884E-25
  -2.11599991E-02     9.93241750E-25
  -2.11500004E-02     9.92288608E-25
  -2.11399999E-02     9.91336059E-25
  -2.11299993E-02     9.90432714E-25
  -2.11200006E-02     9.89627879E-25
  -2.11100001E-02     9.88966123E-25
  -2.10999995E-02     9.88481467E-25
  -2.10900009E-02     9.88192547E-25
  -2.10800003E-02     9.88099757E-25
  -2.10699998E-02     9.88183968E-25
  -2.10599992E-02     9.88408300E-25
  -2.10500006E-02     9.88722464E-25
  -2.10400000E-02     9.89068084E-25
  -2.10299995E-02     9.89386586E-25
  -2.10200008E-02     9.89626696E-25
  -2.10100003E-02     9.89751336E-25
  -2.09999997E-02     9.89743447E-25
  -2.09899992E-02     9.89608848E-25
  -2.09800005E-02     9.89376430E-25
  -2.09700000E-02     9.89095792E-25
  -2.09599994E-02     9.88831820E-25
  -2.09500007E-02     9.88656791E-25
  -2.09400002E-02     9.88642690E-25
  -2.09299996E-02     9.88852330E-25
  -2.09199991E-02     9.89331366E-25
  -2.09100004E-02     9.90103168E-25
  -2.08999999E-02     9.91166257E-25
  -2.08899993E-02     9.92493614E-25
  -2.08800007E-02     9.94036231E-25
  -2.08700001E-02     9.95729324E-25
  -2.08599996E-02     9.97499528E-25
  -2.08500009E-02     9.99273873E-25
  -2.08400004E-02     1.00098846E-24
  -2.08299998E-02     1.00259557E-24
  -2.08199993E-02     1.00406906E-24
  -2.08100006E-02     1.00540687E-24
  -2.08000001E-02     1.00663010E-24
  -2.07899995E-02     1.00777868E-24
  -2.07800008E-02     1.00890527E-24
  -2.07700003E-02     1.01006648E-24
  -2.07599998E-02     1.01131357E-24
  -2.07499992E-02     1.01268431E-24
  -2.07400005E-02     1.01419537E-24
  -2.07300000E-02     1.01583867E-24
  -2.07199994E-02     1.01757988E-24
  -2.07100008E-02     1.01936153E-24
  -2.07000002E-02     1.02110826E-24
  -2.06899997E-02     1.02273588E-24
  -2.06799991E-02     1.02416066E-24
  -2.06700005E-02     1.02530924E-24
  -2.06599999E-02     1.02612739E-24
  -2.06499994E-02     1.02658591E-24
  -2.06400007E-02     1.02668403E-24
  -2.06300002E-02     1.02644816E-24
  -2.06199996E-02     1.02592731E-24
  -2.06099991E-02     1.02518618E-24
  -2.06000004E-02     1.02429546E-24
  -2.05899999E-02     1.02332151E-24
  -2.05799993E-02     1.02231749E-24
  -2.05700006E-02     1.02131563E-24
  -2.05600001E-02     1.02032305E-24
  -2.05499995E-02     1.01932100E-24
  -2.05400009E-02     1.01826797E-24
  -2.05300003E-02     1.01710568E-24
  -2.05199998E-02     1.01576817E-24
  -2.05099992E-02     1.01419104E-24
  -2.05000006E-02     1.01232163E-24
  -2.04900000E-02     1.01012761E-24
  -2.04799995E-02     1.00760207E-24
  -2.04700008E-02     1.00476632E-24
  -2.04600003E-02     1.00166876E-24
  -2.04499997E-02     9.98380389E-25
  -2.04399992E-02     9.94987795E-25
  -2.04300005E-02     9.91584353E-25
  -2.04200000E-02     9.88260685E-25
  -2.04099994E-02     9.85097057E-25
  -2.04000007E-02     9.82156479E-25
  -2.03900002E-02     9.79480959E-25
  -2.03799997E-02     9.77090513E-25
  -2.03699991E-02     9.74985142E-25
  -2.03600004E-02     9.73149166E-25
  -2.03499999E-02     9.71556851E-25
  -2.03399993E-02     9.70178809E-25
  -2.03300007E-02     9.68988418E-25
  -2.03200001E-02     9.67965759E-25
  -2.03099996E-02     9.67101857E-25
  -2.03000009E-02     9.66399377E-25
  -2.02900004E-02     9.65871925E-25
  -2.02799998E-02     9.65541688E-25
  -2.02699993E-02     9.65436473E-25
  -2.02600006E-02     9.65585371E-25
  -2.02500001E-02     9.66015201E-25
  -2.02399995E-02     9.66747462E-25
  -2.02300008E-02     9.67795069E-25
  -2.02200003E-02     9.69160982E-25
  -2.02099998E-02     9.70837903E-25
  -2.01999992E-02     9.72807294E-25
  -2.01900005E-02     9.75040756E-25
  -2.01800000E-02     9.77500819E-25
  -2.01699995E-02     9.80142418E-25
  -2.01600008E-02     9.82914870E-25
  -2.01500002E-02     9.85763644E-25
  -2.01399997E-02     9.88632731E-25
  -2.01299991E-02     9.91467897E-25
  -2.01200005E-02     9.94219050E-25
  -2.01099999E-02     9.96843294E-25
  -2.00999994E-02     9.99307893E-25
  -2.00900007E-02     1.00159194E-24
  -2.00800002E-02     1.00368775E-24
  -2.00699996E-02     1.00560024E-24
  -2.00599991E-02     1.00734599E-24
  -2.00500004E-02     1.00894984E-24
  -2.00399999E-02     1.01044059E-24
  -2.00299993E-02     1.01184625E-24
  -2.00200006E-02     1.01318859E-24
  -2.00100001E-02     1.01447877E-24
  -1.99999996E-02     1.01571354E-24
  -1.99900009E-02     1.01687366E-24
  -1.99800003E-02     1.01792491E-24
  -1.99699998E-02     1.01882076E-24
  -1.99599992E-02     1.01950766E-24
  -1.99500006E-02     1.01993167E-24
  -1.99400000E-02     1.02004567E-24
  -1.99299995E-02     1.01981611E-24
  -1.99200008E-02     1.01922919E-24
  -1.99100003E-02     1.01829410E-24
  -1.98999997E-02     1.01704326E-24
  -1.98899992E-02     1.01553082E-24
  -1.98800005E-02     1.01382619E-24
  -1.98700000E-02     1.01200776E-24
  -1.98599994E-02     1.01015384E-24
  -1.98500007E-02     1.00833364E-24
  -1.98400002E-02     1.00660022E-24
  -1.98299997E-02     1.00498463E-24
  -1.98199991E-02     1.00349379E-24
  -1.98100004E-02     1.00211131E-24
  -1.97999999E-02     1.00080140E-24
  -1.97899994E-02     9.99515560E-25
  -1.97800007E-02     9.98200332E-25
  -1.97700001E-02     9.96806020E-25
  -1.97599996E-02     9.95294267E-25
  -1.97500009E-02     9.93644266E-25
  -1.97400004E-02     9.91855622E-25
  -1.97299998E-02     9.89949143E-25
  -1.97199993E-02     9.87964073E-25
  -1.97100006E-02     9.85952872E-25
  -1.97000001E-02     9.83974803E-25
  -1.96899995E-02     9.82088637E-25
  -1.96800008E-02     9.80345353E-25
  -1.96700003E-02     9.78782817E-25
  -1.96599998E-02     9.77421637E-25
  -1.96499992E-02     9.76264477E-25
  -1.96400005E-02     9.75296840E-25
  -1.96300000E-02     9.74490526E-25
  -1.96199995E-02     9.73808457E-25
  -1.96100008E-02     9.73210303E-25
  -1.96000002E-02     9.72659087E-25
  -1.95899997E-02     9.72125422E-25
  -1.95799991E-02     9.71591659E-25
  -1.95700005E-02     9.71053656E-25
  -1.95599999E-02     9.70520288E-25
  -1.95499994E-02     9.70011374E-25
  -1.95400007E-02     9.69553736E-25
  -1.95300002E-02     9.69175871E-25
  -1.95199996E-02     9.68903418E-25
  -1.95099991E-02     9.68753436E-25
  -1.95000004E-02     9.68731151E-25
  -1.94899999E-02     9.68827293E-25
  -1.94799993E-02     9.69018001E-25
  -1.94700006E-02     9.69266393E-25
  -1.94600001E-02     9.69526421E-25
  -1.94499996E-02     9.69748486E-25
  -1.94400009E-02     9.69884663E-25
  -1.94300003E-02     9.69895904E-25
  -1.94199998E-02     9.69756374E-25
  -1.94099993E-02     9.69458777E-25
  -1.94000006E-02     9.69015437E-25
  -1.93900000E-02     9.68458402E-25
  -1.93799995E-02     9.67836583E-25
  -1.93700008E-02     9.67210917E-25
  -1.93600003E-02     9.66647967E-25
  -1.93499997E-02     9.66212417E-25
  -1.93399992E-02     9.65959390E-25
  -1.93300005E-02     9.65928230E-25
  -1.93200000E-02     9.66137376E-25
  -1.93099994E-02     9.66582590E-25
  -1.93000007E-02     9.67237344E-25
  -1.92900002E-02     9.68056872E-25
  -1.92799997E-02     9.68983389E-25
  -1.92699991E-02     9.69955069E-25
  -1.92600004E-02     9.70913239E-25
  -1.92499999E-02     9.71810963E-25
  -1.92399994E-02     9.72618855E-25
  -1.92300007E-02     9.73328928E-25
  -1.92200001E-02     9.73954692E-25
  -1.92099996E-02     9.74527997E-25
  -1.92000009E-02     9.75093117E-25
  -1.91900004E-02     9.75698272E-25
  -1.91799998E-02     9.76386159E-25
  -1.91699993E-02     9.77185669E-25
  -1.91600006E-02     9.78104100E-25
  -1.91500001E-02     9.79123802E-25
  -1.91399995E-02     9.80201583E-25
  -1.91300008E-02     9.81271870E-25
  -1.91200003E-02     9.82254199E-25
  -1.91099998E-02     9.83062486E-25
  -1.90999992E-02     9.83615477E-25
  -1.90900005E-02     9.83848093E-25
  -1.90800000E-02     9.83719311E-25
  -1.90699995E-02     9.83218680E-25
  -1.90600008E-02     9.82367598E-25
  -1.90500002E-02     9.81217241E-25
  -1.90399997E-02     9.79842158E-25
  -1.90299992E-02     9.78331490E-25
  -1.90200005E-02     9.76777927E-25
  -1.90099999E-02     9.75266666E-25
  -1.89999994E-02     9.73865649E-25
  -1.89900007E-02     9.72619052E-25
  -1.89800002E-02     9.71544130E-25
  -1.89699996E-02     9.70631714E-25
  -1.89599991E-02     9.69850840E-25
  -1.89500004E-02     9.69156347E-25
  -1.89399999E-02     9.68498930E-25
  -1.89299993E-02     9.67834512E-25
  -1.89200006E-02     9.67133609E-25
  -1.89100001E-02     9.66387544E-25
  -1.88999996E-02     9.65611798E-25
  -1.88900009E-02     9.64844828E-25
  -1.88800003E-02     9.64143629E-25
  -1.88699998E-02     9.63576339E-25
  -1.88599993E-02     9.63212181E-25
  -1.88500006E-02     9.63111404E-25
  -1.88400000E-02     9.63315621E-25
  -1.88299995E-02     9.63840904E-25
  -1.88200008E-02     9.64673645E-25
  -1.88100003E-02     9.65770260E-25
  -1.87999997E-02     9.67060935E-25
  -1.87899992E-02     9.68456726E-25
  -1.87800005E-02     9.69858335E-25
  -1.87700000E-02     9.71167449E-25
  -1.87599994E-02     9.72296506E-25
  -1.87500007E-02     9.73177467E-25
  -1.87400002E-02     9.73768817E-25
  -1.87299997E-02     9.74057638E-25
  -1.87199991E-02     9.74060498E-25
  -1.87100004E-02     9.73819402E-25
  -1.86999999E-02     9.73396474E-25
  -1.86899994E-02     9.72865965E-25
  -1.86800007E-02     9.72306170E-25
  -1.86700001E-02     9.71791438E-25
  -1.86599996E-02     9.71385076E-25
  -1.86500009E-02     9.71134317E-25
  -1.86400004E-02     9.71066672E-25
  -1.86299998E-02     9.71188946E-25
  -1.86199993E-02     9.71487825E-25
  -1.86100006E-02     9.71931954E-25
  -1.86000001E-02     9.72475775E-25
  -1.85899995E-02     9.73063674E-25
  -1.85800008E-02     9.73634809E-25
  -1.85700003E-02     9.74128143E-25
  -1.85599998E-02     9.74487962E-25
  -1.85499992E-02     9.74667724E-25
  -1.85400005E-02     9.74634394E-25
  -1.85300000E-02     9.74371211E-25
  -1.85199995E-02     9.73879849E-25
  -1.85100008E-02     9.73180721E-25
  -1.85000002E-02     9.72311396E-25
  -1.84899997E-02     9.71324334E-25
  -1.84799992E-02     9.70281657E-25
  -1.84700005E-02     9.69249630E-25
  -1.84599999E-02     9.68292051E-25
  -1.84499994E-02     9.67462860E-25
  -1.84400007E-02     9.66799724E-25
  -1.84300002E-02     9.66319406E-25
  -1.84199996E-02     9.66014906E-25
  -1.84099991E-02     9.65855260E-25
  -1.84000004E-02     9.65788700E-25
  -1.83899999E-02     9.65749454E-25
  -1.83799993E-02     9.65665440E-25
  -1.83700006E-02     9.65468718E-25
  -1.83600001E-02     9.65106138E-25
  -1.83499996E-02     9.64548019E-25
  -1.83400009E-02     9.63795939E-25
  -1.83300003E-02     9.62885001E-25
  -1.83199998E-02     9.61883444E-25
  -1.83099993E-02     9.60886422E-25
  -1.83000006E-02     9.60006251E-25
  -1.82900000E-02     9.59359385E-25
  -1.82799995E-02     9.59052123E-25
  -1.82700008E-02     9.59166015E-25
  -1.82600003E-02     9.59745532E-25
  -1.82499997E-02     9.60790280E-25
  -1.82399992E-02     9.62251250E-25
  -1.82300005E-02     9.64034175E-25
  -1.82200000E-02     9.66008398E-25
  -1.82099994E-02     9.68020486E-25
  -1.82000007E-02     9.69911879E-25
  -1.81900002E-02     9.71537326E-25
  -1.81799997E-02     9.72783234E-25
  -1.81699991E-02     9.73581561E-25
  -1.81600004E-02     9.73919292E-25
  -1.81499999E-02     9.73840800E-25
  -1.81399994E-02     9.73442820E-25
  -1.81300007E-02     9.72863303E-25
  -1.81200001E-02     9.72263670E-25
  -1.81099996E-02     9.71808004E-25
  -1.81000009E-02     9.71641653E-25
  -1.80900004E-02     9.71871310E-25
  -1.80799998E-02     9.72550322E-25
  -1.80699993E-02     9.73669617E-25
  -1.80600006E-02     9.75158592E-25
  -1.80500001E-02     9.76892016E-25
  -1.80399995E-02     9.78705903E-25
  -1.80300009E-02     9.80418323E-25
  -1.80200003E-02     9.81852669E-25
  -1.80099998E-02     9.82860833E-25
  -1.79999992E-02     9.83343813E-25
  -1.79900005E-02     9.83264533E-25
  -1.79800000E-02     9.82654349E-25
  -1.79699995E-02     9.81608812E-25
  -1.79600008E-02     9.80277116E-25
  -1.79500002E-02     9.78841488E-25
  -1.79399997E-02     9.77494607E-25
  -1.79299992E-02     9.76413473E-25
  -1.79200005E-02     9.75735940E-25
  -1.79099999E-02     9.75541979E-25
  -1.78999994E-02     9.75842535E-25
  -1.78900007E-02     9.76576669E-25
  -1.78800002E-02     9.77618557E-25
  -1.78699996E-02     9.78792677E-25
  -1.78599991E-02     9.79895604E-25
  -1.78500004E-02     9.80721245E-25
  -1.78399999E-02     9.81087277E-25
  -1.78299993E-02     9.80857718E-25
  -1.78200006E-02     9.79960685E-25
  -1.78100001E-02     9.78397754E-25
  -1.77999996E-02     9.76244361E-25
  -1.77900009E-02     9.73641514E-25
  -1.77800003E-02     9.70779428E-25
  -1.77699998E-02     9.67875631E-25
  -1.77599993E-02     9.65150018E-25
  -1.77500006E-02     9.62799410E-25
  -1.77400000E-02     9.60975958E-25
  -1.77299995E-02     9.59770776E-25
  -1.77200008E-02     9.59204472E-25
  -1.77100003E-02     9.59227251E-25
  -1.76999997E-02     9.59726304E-25
  -1.76899992E-02     9.60541493E-25
  -1.76800005E-02     9.61485168E-25
  -1.76700000E-02     9.62366227E-25
  -1.76599994E-02     9.63012895E-25
  -1.76500008E-02     9.63293927E-25
  -1.76400002E-02     9.63134479E-25
  -1.76299997E-02     9.62524393E-25
  -1.76199991E-02     9.61519286E-25
  -1.76100004E-02     9.60234330E-25
  -1.75999999E-02     9.58829073E-25
  -1.75899994E-02     9.57488700E-25
  -1.75800007E-02     9.56401452E-25
  -1.75700001E-02     9.55735456E-25
  -1.75599996E-02     9.55618508E-25
  -1.75500009E-02     9.56122393E-25
  -1.75400004E-02     9.57253619E-25
  -1.75299998E-02     9.58952431E-25
  -1.75199993E-02     9.61099711E-25
  -1.75100006E-02     9.63530191E-25
  -1.75000001E-02     9.66051982E-25
  -1.74899995E-02     9.68468658E-25
  -1.74800009E-02     9.70601639E-25
  -1.74700003E-02     9.72310805E-25
  -1.74599998E-02     9.73509676E-25
  -1.74499992E-02     9.74173601E-25
  -1.74400005E-02     9.74341037E-25
  -1.74300000E-02     9.74106844E-25
  -1.74199995E-02     9.73608678E-25
  -1.74100008E-02     9.73008946E-25
  -1.74000002E-02     9.72473902E-25
  -1.73899997E-02     9.72153624E-25
  -1.73799992E-02     9.72163288E-25
  -1.73700005E-02     9.72570931E-25
  -1.73599999E-02     9.73390065E-25
  -1.73499994E-02     9.74579864E-25
  -1.73400007E-02     9.76051682E-25
  -1.73300002E-02     9.77681567E-25
  -1.73199996E-02     9.79325849E-25
  -1.73099991E-02     9.80838687E-25
  -1.73000004E-02     9.82089130E-25
  -1.72899999E-02     9.82975612E-25
  -1.72799993E-02     9.83436603E-25
  -1.72700007E-02     9.83455831E-25
  -1.72600001E-02     9.83062387E-25
  -1.72499996E-02     9.82325492E-25
  -1.72400009E-02     9.81345826E-25
  -1.72300003E-02     9.80242702E-25
  -1.72199998E-02     9.79140762E-25
  -1.72099993E-02     9.78155672E-25
  -1.72000006E-02     9.77382490E-25
  -1.71900000E-02     9.76886296E-25
  -1.71799995E-02     9.76695885E-25
  -1.71700008E-02     9.76802480E-25
  -1.71600003E-02     9.77161313E-25
  -1.71499997E-02     9.77698034E-25
  -1.71399992E-02     9.78317093E-25
  -1.71300005E-02     9.78912387E-25
  -1.71200000E-02     9.79378900E-25
  -1.71099994E-02     9.79624137E-25
  -1.71000008E-02     9.79577693E-25
  -1.70900002E-02     9.79198744E-25
  -1.70799997E-02     9.78480288E-25
  -1.70699991E-02     9.77449839E-25
  -1.70600004E-02     9.76166559E-25
  -1.70499999E-02     9.74715253E-25
  -1.70399994E-02     9.73197287E-25
  -1.70300007E-02     9.71720539E-25
  -1.70200001E-02     9.70388055E-25
  -1.70099996E-02     9.69287199E-25
  -1.70000009E-02     9.68480688E-25
  -1.69900004E-02     9.67999976E-25
  -1.69799998E-02     9.67842006E-25
  -1.69699993E-02     9.67970196E-25
  -1.69600006E-02     9.68317689E-25
  -1.69500001E-02     9.68795147E-25
  -1.69399995E-02     9.69300610E-25
  -1.69300009E-02     9.69730046E-25
  -1.69200003E-02     9.69988299E-25
  -1.69099998E-02     9.69999738E-25
  -1.68999992E-02     9.69715452E-25
  -1.68900006E-02     9.69118383E-25
  -1.68800000E-02     9.68224801E-25
  -1.68699995E-02     9.67081446E-25
  -1.68600008E-02     9.65761090E-25
  -1.68500002E-02     9.64353762E-25
  -1.68399997E-02     9.62957478E-25
  -1.68299992E-02     9.61667888E-25
  -1.68200005E-02     9.60568807E-25
  -1.68099999E-02     9.59723444E-25
  -1.67999994E-02     9.59168776E-25
  -1.67900007E-02     9.58912397E-25
  -1.67800002E-02     9.58931822E-25
  -1.67699996E-02     9.59178243E-25
  -1.67599991E-02     9.59581745E-25
  -1.67500004E-02     9.60060091E-25
  -1.67399999E-02     9.60528181E-25
  -1.67299993E-02     9.60908116E-25
  -1.67200007E-02     9.61139449E-25
  -1.67100001E-02     9.61186781E-25
  -1.66999996E-02     9.61045476E-25
  -1.66900009E-02     9.60743638E-25
  -1.66800003E-02     9.60340432E-25
  -1.66699998E-02     9.59919969E-25
  -1.66599993E-02     9.59582435E-25
  -1.66500006E-02     9.59432157E-25
  -1.66400000E-02     9.59564489E-25
  -1.66299995E-02     9.60052892E-25
  -1.66200008E-02     9.60938389E-25
  -1.66100003E-02     9.62222161E-25
  -1.65999997E-02     9.63862696E-25
  -1.65899992E-02     9.65778839E-25
  -1.65800005E-02     9.67856699E-25
  -1.65700000E-02     9.69962760E-25
  -1.65599994E-02     9.71957888E-25
  -1.65500008E-02     9.73714287E-25
  -1.65400002E-02     9.75129996E-25
  -1.65299997E-02     9.76141809E-25
  -1.65199991E-02     9.76732271E-25
  -1.65100005E-02     9.76930768E-25
  -1.64999999E-02     9.76809580E-25
  -1.64899994E-02     9.76472933E-25
  -1.64800007E-02     9.76042610E-25
  -1.64700001E-02     9.75640586E-25
  -1.64599996E-02     9.75372177E-25
  -1.64500009E-02     9.75310744E-25
  -1.64400004E-02     9.75487745E-25
  -1.64299998E-02     9.75887500E-25
  -1.64199993E-02     9.76448873E-25
  -1.64100006E-02     9.77073651E-25
  -1.64000001E-02     9.77639363E-25
  -1.63899995E-02     9.78016734E-25
  -1.63800009E-02     9.78087041E-25
  -1.63700003E-02     9.77759072E-25
  -1.63599998E-02     9.76982833E-25
  -1.63499992E-02     9.75756845E-25
  -1.63400006E-02     9.74130707E-25
  -1.63300000E-02     9.72199674E-25
  -1.63199995E-02     9.70094007E-25
  -1.63100008E-02     9.67963885E-25
  -1.63000003E-02     9.65961165E-25
  -1.62899997E-02     9.64221233E-25
  -1.62799992E-02     9.62846446E-25
  -1.62700005E-02     9.61894488E-25
  -1.62599999E-02     9.61370980E-25
  -1.62499994E-02     9.61230070E-25
  -1.62400007E-02     9.61379756E-25
  -1.62300002E-02     9.61693920E-25
  -1.62199996E-02     9.62027510E-25
  -1.62099991E-02     9.62234487E-25
  -1.62000004E-02     9.62185183E-25
  -1.61899999E-02     9.61781779E-25
  -1.61799993E-02     9.60969055E-25
  -1.61700007E-02     9.59740996E-25
  -1.61600001E-02     9.58140398E-25
  -1.61499996E-02     9.56253442E-25
  -1.61400009E-02     9.54199150E-25
  -1.61300004E-02     9.52114388E-25
  -1.61199998E-02     9.50138291E-25
  -1.61099993E-02     9.48395796E-25
  -1.61000006E-02     9.46984327E-25
  -1.60900000E-02     9.45962850E-25
  -1.60799995E-02     9.45346947E-25
  -1.60700008E-02     9.45108514E-25
  -1.60600003E-02     9.45180793E-25
  -1.60499997E-02     9.45468037E-25
  -1.60399992E-02     9.45858622E-25
  -1.60300005E-02     9.46239247E-25
  -1.60200000E-02     9.46509038E-25
  -1.60099994E-02     9.46592854E-25
  -1.60000008E-02     9.46449282E-25
  -1.59900002E-02     9.46075855E-25
  -1.59799997E-02     9.45508368E-25
  -1.59699991E-02     9.44815649E-25
  -1.59600005E-02     9.44090982E-25
  -1.59499999E-02     9.43440270E-25
  -1.59399994E-02     9.42969123E-25
  -1.59300007E-02     9.42770626E-25
  -1.59200002E-02     9.42914199E-25
  -1.59099996E-02     9.43438495E-25
  -1.59000009E-02     9.44346179E-25
  -1.58900004E-02     9.45604905E-25
  -1.58799998E-02     9.47150480E-25
  -1.58699993E-02     9.48893764E-25
  -1.58600006E-02     9.50730134E-25
  -1.58500001E-02     9.52549247E-25
  -1.58399995E-02     9.54245594E-25
  -1.58300009E-02     9.55727666E-25
  -1.58200003E-02     9.56925354E-25
  -1.58099998E-02     9.57795369E-25
  -1.57999992E-02     9.58323117E-25
  -1.57900006E-02     9.58522502E-25
  -1.57800000E-02     9.58432868E-25
  -1.57699995E-02     9.58113872E-25
  -1.57600008E-02     9.57638583E-25
  -1.57500003E-02     9.57085395E-25
  -1.57399997E-02     9.56530530E-25
  -1.57299992E-02     9.56040548E-25
  -1.57200005E-02     9.55666037E-25
  -1.57099999E-02     9.55437070E-25
  -1.56999994E-02     9.55360747E-25
  -1.56900007E-02     9.55420898E-25
  -1.56800002E-02     9.55580149E-25
  -1.56699996E-02     9.55783676E-25
  -1.56599991E-02     9.55965409E-25
  -1.56500004E-02     9.56054255E-25
  -1.56399999E-02     9.55982468E-25
  -1.56299993E-02     9.55692266E-25
  -1.56199997E-02     9.55143120E-25
  -1.56100001E-02     9.54316098E-25
  -1.55999996E-02     9.53216919E-25
  -1.55900000E-02     9.51876842E-25
  -1.55800004E-02     9.50350396E-25
  -1.55699998E-02     9.48710946E-25
  -1.55600002E-02     9.47043886E-25
  -1.55499997E-02     9.45438356E-25
  -1.55400001E-02     9.43978569E-25
  -1.55300004E-02     9.42734831E-25
  -1.55199999E-02     9.41756447E-25
  -1.55100003E-02     9.41066193E-25
  -1.54999997E-02     9.40658550E-25
  -1.54900001E-02     9.40499890E-25
  -1.54799996E-02     9.40533417E-25
  -1.54700000E-02     9.40685272E-25
  -1.54600004E-02     9.40873711E-25
  -1.54499998E-02     9.41019158E-25
  -1.54400002E-02     9.41053177E-25
  -1.54299997E-02     9.40927650E-25
  -1.54200001E-02     9.40620191E-25
  -1.54100005E-02     9.40137014E-25
  -1.53999999E-02     9.39512926E-25
  -1.53900003E-02     9.38806403E-25
  -1.53799998E-02     9.38093568E-25
  -1.53700002E-02     9.37458733E-25
  -1.53599996E-02     9.36984430E-25
  -1.53500000E-02     9.36742052E-25
  -1.53400004E-02     9.36783172E-25
  -1.53299998E-02     9.37133623E-25
  -1.53200002E-02     9.37790547E-25
  -1.53099997E-02     9.38722784E-25
  -1.53000001E-02     9.39874619E-25
  -1.52899995E-02     9.41171605E-25
  -1.52799999E-02     9.42529826E-25
  -1.52700003E-02     9.43864382E-25
  -1.52599998E-02     9.45098949E-25
  -1.52500002E-02     9.46173378E-25
  -1.52399996E-02     9.47048619E-25
  -1.52300000E-02     9.47709980E-25
  -1.52200004E-02     9.48165843E-25
  -1.52099999E-02     9.48444705E-25
  -1.52000003E-02     9.48589954E-25
  -1.51899997E-02     9.48651880E-25
  -1.51800001E-02     9.48681166E-25
  -1.51699996E-02     9.48721398E-25
  -1.51600000E-02     9.48804525E-25
  -1.51500003E-02     9.48947111E-25
  -1.51399998E-02     9.49150144E-25
  -1.51300002E-02     9.49401002E-25
  -1.51199996E-02     9.49677300E-25
  -1.51100000E-02     9.49951331E-25
  -1.51000004E-02     9.50196272E-25
  -1.50899999E-02     9.50390628E-25
  -1.50800003E-02     9.50522368E-25
  -1.50699997E-02     9.50591097E-25
  -1.50600001E-02     9.50608255E-25
  -1.50499996E-02     9.50595535E-25
  -1.50400000E-02     9.50581730E-25
  -1.50300004E-02     9.50598591E-25
  -1.50199998E-02     9.50676196E-25
  -1.50100002E-02     9.50839194E-25
  -1.49999997E-02     9.51102674E-25
  -1.49900001E-02     9.51470381E-25
  -1.49800004E-02     9.51934034E-25
  -1.49699999E-02     9.52473911E-25
  -1.49600003E-02     9.53060429E-25
  -1.49499997E-02     9.53657893E-25
  -1.49400001E-02     9.54227943E-25
  -1.49299996E-02     9.54733209E-25
  -1.49200000E-02     9.55141740E-25
  -1.49100004E-02     9.55429181E-25
  -1.48999998E-02     9.55582220E-25
  -1.48900002E-02     9.55598589E-25
  -1.48799997E-02     9.55487557E-25
  -1.48700001E-02     9.55267761E-25
  -1.48600005E-02     9.54965134E-25
  -1.48499999E-02     9.54608569E-25
  -1.48400003E-02     9.54226563E-25
  -1.48299998E-02     9.53842585E-25
  -1.48200002E-02     9.53471721E-25
  -1.48099996E-02     9.53118016E-25
  -1.48000000E-02     9.52773284E-25
  -1.47900004E-02     9.52417310E-25
  -1.47799999E-02     9.52019922E-25
  -1.47700002E-02     9.51544830E-25
  -1.47599997E-02     9.50954170E-25
  -1.47500001E-02     9.50214219E-25
  -1.47399995E-02     9.49301408E-25
  -1.47299999E-02     9.48207357E-25
  -1.47200003E-02     9.46943109E-25
  -1.47099998E-02     9.45540711E-25
  -1.47000002E-02     9.44053708E-25
  -1.46899996E-02     9.42553985E-25
  -1.46800000E-02     9.41127133E-25
  -1.46700004E-02     9.39864462E-25
  -1.46599999E-02     9.38855016E-25
  -1.46500003E-02     9.38175709E-25
  -1.46399997E-02     9.37883140E-25
  -1.46300001E-02     9.38005906E-25
  -1.46199996E-02     9.38540162E-25
  -1.46100000E-02     9.39448338E-25
  -1.46000003E-02     9.40662001E-25
  -1.45899998E-02     9.42088163E-25
  -1.45800002E-02     9.43619440E-25
  -1.45699997E-02     9.45145985E-25
  -1.45600000E-02     9.46568400E-25
  -1.45500004E-02     9.47809574E-25
  -1.45399999E-02     9.48824640E-25
  -1.45300003E-02     9.49606599E-25
  -1.45199997E-02     9.50187299E-25
  -1.45100001E-02     9.50633597E-25
  -1.44999996E-02     9.51038776E-25
  -1.44900000E-02     9.51509627E-25
  -1.44800004E-02     9.52151661E-25
  -1.44699998E-02     9.53053625E-25
  -1.44600002E-02     9.54273796E-25
  -1.44499997E-02     9.55829824E-25
  -1.44400001E-02     9.57692916E-25
  -1.44300004E-02     9.59788032E-25
  -1.44199999E-02     9.62000491E-25
  -1.44100003E-02     9.64186819E-25
  -1.43999998E-02     9.66190822E-25
  -1.43900001E-02     9.67861333E-25
  -1.43799996E-02     9.69070164E-25
  -1.43700000E-02     9.69728173E-25
  -1.43600004E-02     9.69797592E-25
  -1.43499998E-02     9.69297750E-25
  -1.43400002E-02     9.68305462E-25
  -1.43299997E-02     9.66947438E-25
  -1.43200001E-02     9.65387663E-25
  -1.43100005E-02     9.63809251E-25
  -1.42999999E-02     9.62394527E-25
  -1.42900003E-02     9.61304124E-25
  -1.42799998E-02     9.60659526E-25
  -1.42700002E-02     9.60528970E-25
  -1.42599996E-02     9.60920738E-25
  -1.42500000E-02     9.61782272E-25
  -1.42400004E-02     9.63007669E-25
  -1.42299999E-02     9.64451383E-25
  -1.42200002E-02     9.65945782E-25
  -1.42099997E-02     9.67322640E-25
  -1.42000001E-02     9.68433356E-25
  -1.41899996E-02     9.69166405E-25
  -1.41799999E-02     9.69460946E-25
  -1.41700003E-02     9.69312936E-25
  -1.41599998E-02     9.68774637E-25
  -1.41500002E-02     9.67946629E-25
  -1.41399996E-02     9.66964497E-25
  -1.41300000E-02     9.65981280E-25
  -1.41200004E-02     9.65147652E-25
  -1.41099999E-02     9.64593280E-25
  -1.41000003E-02     9.64410757E-25
  -1.40899997E-02     9.64644654E-25
  -1.40800001E-02     9.65286984E-25
  -1.40699996E-02     9.66279075E-25
  -1.40600000E-02     9.67519756E-25
  -1.40500003E-02     9.68878274E-25
  -1.40399998E-02     9.70209871E-25
  -1.40300002E-02     9.71373835E-25
  -1.40199997E-02     9.72248978E-25
  -1.40100000E-02     9.72746354E-25
  -1.40000004E-02     9.72818338E-25
  -1.39899999E-02     9.72461674E-25
  -1.39800003E-02     9.71716003E-25
  -1.39699997E-02     9.70656958E-25
  -1.39600001E-02     9.69385906E-25
  -1.39499996E-02     9.68018119E-25
  -1.39400000E-02     9.66669266E-25
  -1.39300004E-02     9.65444263E-25
  -1.39199998E-02     9.64427718E-25
  -1.39100002E-02     9.63676821E-25