  -2.19999999E-02     1.00000002E-24
  -2.19899993E-02     9.99999428E-25
  -2.19800007E-02     9.99998343E-25
  -2.19700001E-02     9.99997456E-25
  -2.19599996E-02     9.99996963E-25
  -2.19500009E-02     9.99996963E-25
  -2.19400004E-02     9.99997061E-25
  -2.19299998E-02     9.99996765E-25
  -2.19199993E-02     9.99995878E-25
  -2.19100006E-02     9.99994596E-25
  -2.19000001E-02     9.99993314E-25
  -2.18899995E-02     9.99992328E-25
  -2.18800008E-02     9.99991934E-25
  -2.18700003E-02     9.99991934E-25
  -2.18599997E-02     9.99992032E-25
  -2.18499992E-02     9.99991737E-25
  -2.18400005E-02     9.99990948E-25
  -2.18300000E-02     9.99989764E-25
  -2.18199994E-02     9.99988581E-25
  -2.18100008E-02     9.99987792E-25
  -2.18000002E-02     9.99987496E-25
  -2.17899997E-02     9.99987398E-25
  -2.17799991E-02     9.99987299E-25
  -2.17700005E-02     9.99986806E-25
  -2.17599999E-02     9.99985919E-25
  -2.17499994E-02     9.99984834E-25
  -2.17400007E-02     9.99983848E-25
  -2.17300002E-02     9.99983256E-25
  -2.17199996E-02     9.99982862E-25
  -2.17099991E-02     9.99982566E-25
  -2.17000004E-02     9.99981777E-25
  -2.16899998E-02     9.99980495E-25
  -2.16799993E-02     9.99978819E-25
  -2.16700006E-02     9.99977044E-25
  -2.16600001E-02     9.99975861E-25
  -2.16499995E-02     9.99975565E-25
  -2.16400009E-02     9.99976354E-25
  -2.16300003E-02     9.99977931E-25
  -2.16199998E-02     9.99979904E-25
  -2.16099992E-02     9.99981876E-25
  -2.16000006E-02     9.99983749E-25
  -2.15900000E-02     9.99985426E-25
  -2.15799995E-02     9.99986510E-25
  -2.15700008E-02     9.99986905E-25
  -2.15600003E-02     9.99986609E-25
  -2.15499997E-02     9.99985524E-25
  -2.15399992E-02     9.99983552E-25
  -2.15300005E-02     9.99980890E-25
  -2.15200000E-02     9.99977734E-25
  -2.15099994E-02     9.99974184E-25
  -2.15000007E-02     9.99970536E-25
  -2.14900002E-02     9.99966394E-25
  -2.14799996E-02     9.99961168E-25
  -2.14699991E-02     9.99954266E-25
  -2.14600004E-02     9.99944799E-25
  -2.14499999E-02     9.99932671E-25
  -2.14399993E-02     9.99918372E-25
  -2.14300007E-02     9.99903285E-25
  -2.14200001E-02     9.99889678E-25
  -2.14099996E-02     9.99880310E-25
  -2.14000009E-02     9.99878141E-25
  -2.13900004E-02     9.99886226E-25
  -2.13799998E-02     9.99907230E-25
  -2.13699993E-02     9.99942137E-25
  -2.13600006E-02     9.99990356E-25
  -2.13500001E-02     1.00004863E-24
  -2.13399995E-02     1.00010967E-24
  -2.13300008E-02     1.00016252E-24
  -2.13200003E-02     1.00019240E-24
  -2.13099997E-02     1.00018087E-24
  -2.12999992E-02     1.00010760E-24
  -2.12900005E-02     9.99950617E-25
  -2.12800000E-02     9.99689110E-25
  -2.12699994E-02     9.99304146E-25
  -2.12600008E-02     9.98781229E-25
  -2.12500002E-02     9.98111092E-25
  -2.12399997E-02     9.97291564E-25
  -2.12299991E-02     9.96327379E-25
  -2.12200005E-02     9.95231158E-25
  -2.12099999E-02     9.94022426E-25
  -2.11999994E-02     9.92726229E-25
  -2.11900007E-02     9.91371065E-25
  -2.11800002E-02     9.89986022E-25
  -2.11699996E-02     9.88598021E-25
  -2.11599991E-02     9.87229348E-25
  -2.11500004E-02     9.85895975E-25
  -2.11399999E-02     9.84606188E-25
  -2.11299993E-02     9.83360281E-25
  -2.11200006E-02     9.82150562E-25
  -2.11100001E-02     9.80962834E-25
  -2.10999995E-02     9.79777274E-25
  -2.10900009E-02     9.78570613E-25
  -2.10800003E-02     9.77319578E-25
  -2.10699998E-02     9.76004054E-25
  -2.10599992E-02     9.74610630E-25
  -2.10500006E-02     9.73134277E-25
  -2.10400000E-02     9.71580024E-25
  -2.10299995E-02     9.69963549E-25
  -2.10200008E-02     9.68310885E-25
  -2.10100003E-02     9.66657433E-25
  -2.09999997E-02     9.65046776E-25
  -2.09899992E-02     9.63528811E-25
  -2.09800005E-02     9.62157179E-25
  -2.09700000E-02     9.60985917E-25
  -2.09599994E-02     9.60065415E-25
  -2.09500007E-02     9.59437679E-25
  -2.09400002E-02     9.59133968E-25
  -2.09299996E-02     9.59171735E-25
  -2.09199991E-02     9.59553839E-25
  -2.09100004E-02     9.60266871E-25
  -2.08999999E-02     9.61282430E-25
  -2.08899993E-02     9.62556835E-25
  -2.08800007E-02     9.64032005E-25
  -2.08700001E-02     9.65639506E-25
  -2.08599996E-02     9.67303017E-25
  -2.08500009E-02     9.68943749E-25
  -2.08400004E-02     9.70485380E-25
  -2.08299998E-02     9.71859478E-25
  -2.08199993E-02     9.73008552E-25
  -2.08100006E-02     9.73888921E-25
  -2.08000001E-02     9.74472481E-25
  -2.07899995E-02     9.74747497E-25
  -2.07800008E-02     9.74719197E-25
  -2.07700003E-02     9.74408977E-25
  -2.07599998E-02     9.73853126E-25
  -2.07499992E-02     9.73097989E-25
  -2.07400005E-02     9.72197307E-25
  -2.07300000E-02     9.71206695E-25
  -2.07199994E-02     9.70180288E-25
  -2.07100008E-02     9.69167292E-25
  -2.07000002E-02     9.68211094E-25
  -2.06899997E-02     9.67348278E-25
  -2.06799991E-02     9.66609017E-25
  -2.06700005E-02     9.66016385E-25
  -2.06599999E-02     9.65587935E-25
  -2.06499994E-02     9.65335992E-25
  -2.06400007E-02     9.65268742E-25
  -2.06300002E-02     9.65392692E-25
  -2.06199996E-02     9.65712279E-25
  -2.06099991E-02     9.66231152E-25
  -2.06000004E-02     9.66951382E-25
  -2.05899999E-02     9.67870800E-25
  -2.05799993E-02     9.68982107E-25
  -2.05700006E-02     9.70270810E-25
  -2.05600001E-02     9.71715412E-25
  -2.05499995E-02     9.73287907E-25
  -2.05400009E-02     9.74954475E-25
  -2.05300003E-02     9.76677445E-25
  -2.05199998E-02     9.78416982E-25
  -2.05099992E-02     9.80133741E-25
  -2.05000006E-02     9.81791236E-25
  -2.04900000E-02     9.83358802E-25
  -2.04799995E-02     9.84814250E-25
  -2.04700008E-02     9.86145551E-25
  -2.04600003E-02     9.87351917E-25
  -2.04499997E-02     9.88442813E-25
  -2.04399992E-02     9.89435693E-25
  -2.04300005E-02     9.90353828E-25
  -2.04200000E-02     9.91223055E-25
  -2.04099994E-02     9.92068615E-25
  -2.04000007E-02     9.92912006E-25
  -2.03900002E-02     9.93768610E-25
  -2.03799997E-02     9.94646021E-25
  -2.03699991E-02     9.95541674E-25
  -2.03600004E-02     9.96443342E-25
  -2.03499999E-02     9.97329528E-25
  -2.03399993E-02     9.98171933E-25
  -2.03300007E-02     9.98938213E-25
  -2.03200001E-02     9.99595630E-25
  -2.03099996E-02     1.00011411E-24
  -2.03000009E-02     1.00046949E-24
  -2.02900004E-02     1.00064590E-24
  -2.02799998E-02     1.00063762E-24
  -2.02699993E-02     1.00045016E-24
  -2.02600006E-02     1.00009981E-24
  -2.02500001E-02     9.99612590E-25
  -2.02399995E-02     9.99023213E-25
  -2.02300008E-02     9.98372106E-25
  -2.02200003E-02     9.97702758E-25
  -2.02099998E-02     9.97058061E-25
  -2.01999992E-02     9.96477361E-25
  -2.01900005E-02     9.95992606E-25
  -2.01800000E-02     9.95626772E-25
  -2.01699995E-02     9.95392184E-25
  -2.01600008E-02     9.95290619E-25
  -2.01500002E-02     9.95314482E-25
  -2.01399997E-02     9.95447700E-25
  -2.01299991E-02     9.95668582E-25
  -2.01200005E-02     9.95952670E-25
  -2.01099999E-02     9.96275413E-25
  -2.00999994E-02     9.96616003E-25
  -2.00900007E-02     9.96959947E-25
  -2.00800002E-02     9.97302115E-25
  -2.00699996E-02     9.97647242E-25
  -2.00599991E-02     9.98010217E-25
  -2.00500004E-02     9.98413817E-25
  -2.00399999E-02     9.98886740E-25
  -2.00299993E-02     9.99458171E-25
  -2.00200006E-02     1.00015464E-24
  -2.00100001E-02     1.00099507E-24
  -1.99999996E-02     1.00198834E-24
  -1.99900009E-02     1.00313052E-24
  -1.99800003E-02     1.00440364E-24
  -1.99699998E-02     1.00577586E-24
  -1.99599992E-02     1.00720291E-24
  -1.99500006E-02     1.00863095E-24
  -1.99400000E-02     1.01000218E-24
  -1.99299995E-02     1.01126130E-24
  -1.99200008E-02     1.01236196E-24
  -1.99100003E-02     1.01327280E-24
  -1.98999997E-02     1.01398149E-24
  -1.98899992E-02     1.01449741E-24
  -1.98800005E-02     1.01485062E-24
  -1.98700000E-02     1.01509083E-24
  -1.98599994E-02     1.01528302E-24
  -1.98500007E-02     1.01550360E-24
  -1.98400002E-02     1.01583285E-24
  -1.98299997E-02     1.01634877E-24
  -1.98199991E-02     1.01711850E-24
  -1.98100004E-02     1.01819125E-24
  -1.97999999E-02     1.01959385E-24
  -1.97899994E-02     1.02132776E-24
  -1.97800007E-02     1.02337042E-24
  -1.97700001E-02     1.02567813E-24
  -1.97599996E-02     1.02819115E-24
  -1.97500009E-02     1.03083965E-24
  -1.97400004E-02     1.03354919E-24
  -1.97299998E-02     1.03624690E-24
  -1.97199993E-02     1.03886739E-24
  -1.97100006E-02     1.04135793E-24
  -1.97000001E-02     1.04368122E-24
  -1.96899995E-02     1.04581716E-24
  -1.96800008E-02     1.04775993E-24
  -1.96700003E-02     1.04951396E-24
  -1.96599998E-02     1.05108764E-24
  -1.96499992E-02     1.05248737E-24
  -1.96400005E-02     1.05371218E-24
  -1.96300000E-02     1.05475081E-24
  -1.96199995E-02     1.05558030E-24
  -1.96100008E-02     1.05616692E-24
  -1.96000002E-02     1.05646718E-24
  -1.95899997E-02     1.05643296E-24
  -1.95799991E-02     1.05601595E-24
  -1.95700005E-02     1.05517561E-24
  -1.95599999E-02     1.05388711E-24
  -1.95499994E-02     1.05214806E-24
  -1.95400007E-02     1.04998442E-24
  -1.95300002E-02     1.04745168E-24
  -1.95199996E-02     1.04463308E-24
  -1.95099991E-02     1.04163541E-24
  -1.95000004E-02     1.03858114E-24
  -1.94899999E-02     1.03560092E-24
  -1.94799993E-02     1.03282423E-24
  -1.94700006E-02     1.03037028E-24
  -1.94600001E-02     1.02833945E-24
  -1.94499996E-02     1.02680522E-24
  -1.94400009E-02     1.02580977E-24
  -1.94300003E-02     1.02536121E-24
  -1.94199998E-02     1.02543714E-24
  -1.94099993E-02     1.02598855E-24
  -1.94000006E-02     1.02694830E-24
  -1.93900000E-02     1.02823966E-24
  -1.93799995E-02     1.02978435E-24
  -1.93700008E-02     1.03150880E-24
  -1.93600003E-02     1.03334921E-24
  -1.93499997E-02     1.03525520E-24
  -1.93399992E-02     1.03719116E-24
  -1.93300005E-02     1.03913630E-24
  -1.93200000E-02     1.04108153E-24
  -1.93099994E-02     1.04302469E-24
  -1.93000007E-02     1.04496430E-24
  -1.92900002E-02     1.04689346E-24
  -1.92799997E-02     1.04879590E-24
  -1.92699991E-02     1.05064430E-24
  -1.92600004E-02     1.05240188E-24
  -1.92499999E-02     1.05402407E-24
  -1.92399994E-02     1.05546335E-24
  -1.92300007E-02     1.05667267E-24
  -1.92200001E-02     1.05761073E-24
  -1.92099996E-02     1.05824685E-24
  -1.92000009E-02     1.05856495E-24
  -1.91900004E-02     1.05856821E-24
  -1.91799998E-02     1.05828008E-24
  -1.91699993E-02     1.05774444E-24
  -1.91600006E-02     1.05702155E-24
  -1.91500001E-02     1.05618348E-24
  -1.91399995E-02     1.05530785E-24
  -1.91300008E-02     1.05447343E-24
  -1.91200003E-02     1.05375478E-24
  -1.91099998E-02     1.05321953E-24
  -1.90999992E-02     1.05292539E-24
  -1.90900005E-02     1.05291740E-24
  -1.90800000E-02     1.05322585E-24
  -1.90699995E-02     1.05386522E-24
  -1.90600008E-02     1.05483463E-24
  -1.90500002E-02     1.05611949E-24
  -1.90399997E-02     1.05769307E-24
  -1.90299992E-02     1.05951829E-24
  -1.90200005E-02     1.06154695E-24
  -1.90099999E-02     1.06371986E-24
  -1.89999994E-02     1.06596733E-24
  -1.89900007E-02     1.06820996E-24
  -1.89800002E-02     1.07036168E-24
  -1.89699996E-02     1.07233383E-24
  -1.89599991E-02     1.07404053E-24
  -1.89500004E-02     1.07540289E-24
  -1.89399999E-02     1.07635357E-24
  -1.89299993E-02     1.07684109E-24
  -1.89200006E-02     1.07683409E-24
  -1.89100001E-02     1.07632636E-24
  -1.88999996E-02     1.07533850E-24
  -1.88900009E-02     1.07391944E-24
  -1.88800003E-02     1.07214243E-24
  -1.88699998E-02     1.07009968E-24
  -1.88599993E-02     1.06789422E-24
  -1.88500006E-02     1.06563118E-24
  -1.88400000E-02     1.06341024E-24
  -1.88299995E-02     1.06131887E-24
  -1.88200008E-02     1.05942728E-24
  -1.88100003E-02     1.05778487E-24
  -1.87999997E-02     1.05641787E-24
  -1.87899992E-02     1.05532924E-24
  -1.87800005E-02     1.05450272E-24
  -1.87700000E-02     1.05390772E-24
  -1.87599994E-02     1.05350796E-24
  -1.87500007E-02     1.05327061E-24
  -1.87400002E-02     1.05317250E-24
  -1.87299997E-02     1.05320464E-24
  -1.87199991E-02     1.05337247E-24
  -1.87100004E-02     1.05369413E-24
  -1.86999999E-02     1.05419644E-24
  -1.86899994E-02     1.05490977E-24
  -1.86800007E-02     1.05586163E-24
  -1.86700001E-02     1.05706868E-24
  -1.86599996E-02     1.05852827E-24
  -1.86500009E-02     1.06021012E-24
  -1.86400004E-02     1.06205113E-24
  -1.86299998E-02     1.06395524E-24
  -1.86199993E-02     1.06579841E-24
  -1.86100006E-02     1.06743688E-24
  -1.86000001E-02     1.06871937E-24
  -1.85899995E-02     1.06950074E-24
  -1.85800008E-02     1.06965447E-24
  -1.85700003E-02     1.06908491E-24
  -1.85599998E-02     1.06773763E-24
  -1.85499992E-02     1.06560731E-24
  -1.85400005E-02     1.06274266E-24
  -1.85300000E-02     1.05924495E-24
  -1.85199995E-02     1.05526209E-24
  -1.85100008E-02     1.05097582E-24
  -1.85000002E-02     1.04658541E-24
  -1.84899997E-02     1.04229036E-24
  -1.84799992E-02     1.03827338E-24
  -1.84700005E-02     1.03468781E-24
  -1.84599999E-02     1.03164695E-24
  -1.84499994E-02     1.02921795E-24
  -1.84400007E-02     1.02742023E-24
  -1.84300002E-02     1.02622728E-24
  -1.84199996E-02     1.02557312E-24
  -1.84099991E-02     1.02536367E-24
  -1.84000004E-02     1.02549088E-24
  -1.83899999E-02     1.02584823E-24
  -1.83799993E-02     1.02634413E-24
  -1.83700006E-02     1.02691092E-24
  -1.83600001E-02     1.02750898E-24
  -1.83499996E-02     1.02812577E-24
  -1.83400009E-02     1.02877195E-24
  -1.83300003E-02     1.02947472E-24
  -1.83199998E-02     1.03026891E-24
  -1.83099993E-02     1.03118793E-24
  -1.83000006E-02     1.03225447E-24
  -1.82900000E-02     1.03347149E-24
  -1.82799995E-02     1.03481610E-24
  -1.82700008E-02     1.03623753E-24
  -1.82600003E-02     1.03766063E-24
  -1.82499997E-02     1.03899440E-24
  -1.82399992E-02     1.04014377E-24
  -1.82300005E-02     1.04101960E-24
  -1.82200000E-02     1.04154982E-24
  -1.82099994E-02     1.04168530E-24
  -1.82000007E-02     1.04140447E-24
  -1.81900002E-02     1.04071422E-24
  -1.81799997E-02     1.03964965E-24
  -1.81699991E-02     1.03827121E-24
  -1.81600004E-02     1.03665819E-24
  -1.81499999E-02     1.03490021E-24
  -1.81399994E-02     1.03308633E-24
  -1.81300007E-02     1.03129571E-24
  -1.81200001E-02     1.02959009E-24
  -1.81099996E-02     1.02801286E-24
  -1.81000009E-02     1.02658927E-24
  -1.80900004E-02     1.02533084E-24
  -1.80799998E-02     1.02423984E-24
  -1.80699993E-02     1.02331273E-24
  -1.80600006E-02     1.02254310E-24
  -1.80500001E-02     1.02192483E-24
  -1.80399995E-02     1.02145467E-24
  -1.80300009E-02     1.02113429E-24
  -1.80200003E-02     1.02097159E-24
  -1.80099998E-02     1.02098037E-24
  -1.79999992E-02     1.02117660E-24
  -1.79900005E-02     1.02157448E-24
  -1.79800000E-02     1.02218170E-24
  -1.79699995E-02     1.02299847E-24
  -1.79600008E-02     1.02401728E-24
  -1.79500002E-02     1.02522473E-24
  -1.79399997E-02     1.02660356E-24
  -1.79299992E-02     1.02813238E-24
  -1.79200005E-02     1.02978524E-24
  -1.79099999E-02     1.03152911E-24
  -1.78999994E-02     1.03332180E-24
  -1.78900007E-02     1.03511133E-24
  -1.78800002E-02     1.03683647E-24
  -1.78699996E-02     1.03842800E-24
  -1.78599991E-02     1.03981028E-24
  -1.78500004E-02     1.04090334E-24
  -1.78399999E-02     1.04162683E-24
  -1.78299993E-02     1.04190559E-24
  -1.78200006E-02     1.04167919E-24
  -1.78100001E-02     1.04091153E-24
  -1.77999996E-02     1.03960143E-24
  -1.77900009E-02     1.03778902E-24
  -1.77800003E-02     1.03555802E-24
  -1.77699998E-02     1.03303160E-24
  -1.77599993E-02     1.03036446E-24
  -1.77500006E-02     1.02773006E-24
  -1.77400000E-02     1.02530628E-24
  -1.77299995E-02     1.02325879E-24
  -1.77200008E-02     1.02172456E-24
  -1.77100003E-02     1.02079587E-24
  -1.76999997E-02     1.02050823E-24
  -1.76899992E-02     1.02083364E-24
  -1.76800005E-02     1.02168117E-24
  -1.76700000E-02     1.02290637E-24
  -1.76599994E-02     1.02432800E-24
  -1.76500008E-02     1.02574765E-24
  -1.76400002E-02     1.02697315E-24
  -1.76299997E-02     1.02783853E-24
  -1.76199991E-02     1.02822122E-24
  -1.76100004E-02     1.02805398E-24
  -1.75999999E-02     1.02733080E-24
  -1.75899994E-02     1.02610560E-24
  -1.75800007E-02     1.02448340E-24
  -1.75700001E-02     1.02260601E-24
  -1.75599996E-02     1.02063149E-24
  -1.75500009E-02     1.01871190E-24
  -1.75400004E-02     1.01697355E-24
  -1.75299998E-02     1.01549995E-24
  -1.75199993E-02     1.01432366E-24
  -1.75100006E-02     1.01342407E-24
  -1.75000001E-02     1.01273243E-24
  -1.74899995E-02     1.01214256E-24
  -1.74800009E-02     1.01152616E-24
  -1.74700003E-02     1.01074993E-24
  -1.74599998E-02     1.00969453E-24
  -1.74499992E-02     1.00827162E-24
  -1.74400005E-02     1.00643703E-24
  -1.74300000E-02     1.00419913E-24
  -1.74199995E-02     1.00161926E-24
  -1.74100008E-02     9.98805290E-25
  -1.74000002E-02     9.95899915E-25
  -1.73899997E-02     9.93064749E-25
  -1.73799992E-02     9.90463874E-25
  -1.73700005E-02     9.88247274E-25
  -1.73599999E-02     9.86537812E-25
  -1.73499994E-02     9.85419602E-25
  -1.73400007E-02     9.84930903E-25
  -1.73300002E-02     9.85062347E-25
  -1.73199996E-02     9.85759502E-25
  -1.73099991E-02     9.86931355E-25
  -1.73000004E-02     9.88461154E-25
  -1.72899999E-02     9.90220610E-25
  -1.72799993E-02     9.92082814E-25
  -1.72700007E-02     9.93933482E-25
  -1.72600001E-02     9.95679133E-25
  -1.72499996E-02     9.97252516E-25
  -1.72400009E-02     9.98614583E-25
  -1.72300003E-02     9.99753698E-25
  -1.72199998E-02     1.00068238E-24
  -1.72099993E-02     1.00143072E-24
  -1.72000006E-02     1.00203883E-24
  -1.71900000E-02     1.00254834E-24
  -1.71799995E-02     1.00299493E-24
  -1.71700008E-02     1.00340267E-24
  -1.71600003E-02     1.00378123E-24
  -1.71499997E-02     1.00412665E-24
  -1.71399992E-02     1.00442297E-24
  -1.71300005E-02     1.00464680E-24
  -1.71200000E-02     1.00477135E-24
  -1.71099994E-02     1.00477194E-24
  -1.71000008E-02     1.00463191E-24
  -1.70900002E-02     1.00434723E-24
  -1.70799997E-02     1.00393022E-24
  -1.70699991E-02     1.00341165E-24
  -1.70600004E-02     1.00283854E-24
  -1.70499999E-02     1.00226888E-24
  -1.70399994E-02     1.00176500E-24
  -1.70300007E-02     1.00138496E-24
  -1.70200001E-02     1.00117532E-24
  -1.70099996E-02     1.00116428E-24
  -1.70000009E-02     1.00135775E-24
  -1.69900004E-02     1.00173640E-24
  -1.69799998E-02     1.00225547E-24
  -1.69699993E-02     1.00284643E-24
  -1.69600006E-02     1.00342210E-24
  -1.69500001E-02     1.00388624E-24
  -1.69399995E-02     1.00414312E-24
  -1.69300009E-02     1.00410969E-24
  -1.69200003E-02     1.00372463E-24
  -1.69099998E-02     1.00295450E-24
  -1.68999992E-02     1.00179685E-24
  -1.68900006E-02     1.00027829E-24
  -1.68800000E-02     9.98451486E-25
  -1.68699995E-02     9.96389502E-25
  -1.68600008E-02     9.94178423E-25
  -1.68500002E-02     9.91909265E-25
  -1.68399997E-02     9.89668604E-25
  -1.68299992E-02     9.87528030E-25
  -1.68200005E-02     9.85537340E-25
  -1.68099999E-02     9.83719903E-25
  -1.67999994E-02     9.82072564E-25
  -1.67900007E-02     9.80569685E-25
  -1.67800002E-02     9.79168964E-25
  -1.67699996E-02     9.77818631E-25
  -1.67599991E-02     9.76463566E-25
  -1.67500004E-02     9.75051603E-25
  -1.67399999E-02     9.73538864E-25
  -1.67299993E-02     9.71894878E-25
  -1.67200007E-02     9.70106629E-25
  -1.67100001E-02     9.68181118E-25
  -1.66999996E-02     9.66145462E-25
  -1.66900009E-02     9.64045120E-25
  -1.66800003E-02     9.61939552E-25
  -1.66699998E-02     9.59897191E-25
  -1.66599993E-02     9.57990711E-25
  -1.66500006E-02     9.56292491E-25
  -1.66400000E-02     9.54871457E-25
  -1.66299995E-02     9.53789731E-25
  -1.66200008E-02     9.53097013E-25
  -1.66100003E-02     9.52826137E-25
  -1.65999997E-02     9.52986671E-25
  -1.65899992E-02     9.53561257E-25
  -1.65800005E-02     9.54505228E-25
  -1.65700000E-02     9.55747980E-25
  -1.65599994E-02     9.57197216E-25
  -1.65500008E-02     9.58745848E-25
  -1.65400002E-02     9.60279887E-25
  -1.65299997E-02     9.61685736E-25
  -1.65199991E-02     9.62861336E-25
  -1.65100005E-02     9.63725829E-25
  -1.64999999E-02     9.64228925E-25
  -1.64899994E-02     9.64358298E-25
  -1.64800007E-02     9.64142446E-25
  -1.64700001E-02     9.63647731E-25
  -1.64599996E-02     9.62971480E-25
  -1.64500009E-02     9.62230345E-25
  -1.64400004E-02     9.61546206E-25
  -1.64299998E-02     9.61032657E-25
  -1.64199993E-02     9.60783279E-25
  -1.64100006E-02     9.60861770E-25
  -1.64000001E-02     9.61295348E-25
  -1.63899995E-02     9.62071587E-25
  -1.63800009E-02     9.63141085E-25
  -1.63700003E-02     9.64423083E-25
  -1.63599998E-02     9.65817000E-25
  -1.63499992E-02     9.67215848E-25
  -1.63400006E-02     9.68521314E-25
  -1.63300000E-02     9.69655302E-25
  -1.63199995E-02     9.70568408E-25
  -1.63100008E-02     9.71241997E-25
  -1.63000003E-02     9.71686914E-25
  -1.62899997E-02     9.71936589E-25
  -1.62799992E-02     9.72038943E-25
  -1.62700005E-02     9.72045649E-25
  -1.62599999E-02     9.72002754E-25
  -1.62499994E-02     9.71941815E-25
  -1.62400007E-02     9.71874071E-25
  -1.62300002E-02     9.71787100E-25
  -1.62199996E-02     9.71648654E-25
  -1.62099991E-02     9.71412785E-25
  -1.62000004E-02     9.71030582E-25
  -1.61899999E-02     9.70463095E-25
  -1.61799993E-02     9.69691491E-25
  -1.61700007E-02     9.68724544E-25
  -1.61600001E-02     9.67601798E-25
  -1.61499996E-02     9.66390502E-25
  -1.61400009E-02     9.65180094E-25
  -1.61300004E-02     9.64071054E-25
  -1.61199998E-02     9.63163173E-25
  -1.61099993E-02     9.62540861E-25
  -1.61000006E-02     9.62260914E-25
  -1.60900000E-02     9.62342167E-25
  -1.60799995E-02     9.62760066E-25
  -1.60700008E-02     9.63446375E-25
  -1.60600003E-02     9.64294696E-25
  -1.60499997E-02     9.65173388E-25
  -1.60399992E-02     9.65940457E-25
  -1.60300005E-02     9.66460316E-25
  -1.60200000E-02     9.66621244E-25
  -1.60099994E-02     9.66348199E-25
  -1.60000008E-02     9.65612784E-25
  -1.59900002E-02     9.64436691E-25
  -1.59799997E-02     9.62888946E-25
  -1.59699991E-02     9.61078707E-25
  -1.59600005E-02     9.59141856E-25
  -1.59499999E-02     9.57225417E-25
  -1.59399994E-02     9.55471582E-25
  -1.59300007E-02     9.54000653E-25
  -1.59200002E-02     9.52898713E-25
  -1.59099996E-02     9.52207966E-25
  -1.59000009E-02     9.51923681E-25
  -1.58900004E-02     9.51996847E-25
  -1.58799998E-02     9.52342467E-25
  -1.58699993E-02     9.52851578E-25
  -1.58600006E-02     9.53406542E-25
  -1.58500001E-02     9.53895438E-25
  -1.58399995E-02     9.54225379E-25
  -1.58300009E-02     9.54333848E-25
  -1.58200003E-02     9.54194614E-25
  -1.58099998E-02     9.53820102E-25
  -1.57999992E-02     9.53259518E-25
  -1.57900006E-02     9.52591550E-25
  -1.57800000E-02     9.51915003E-25
  -1.57699995E-02     9.51335782E-25
  -1.57600008E-02     9.50953579E-25
  -1.57500003E-02     9.50848463E-25
  -1.57399997E-02     9.51071612E-25
  -1.57299992E-02     9.51639296E-25
  -1.57200005E-02     9.52531399E-25
  -1.57099999E-02     9.53693983E-25
  -1.56999994E-02     9.55046682E-25
  -1.56900007E-02     9.56490594E-25
  -1.56800002E-02     9.57919714E-25
  -1.56699996E-02     9.59232378E-25
  -1.56599991E-02     9.60341319E-25
  -1.56500004E-02     9.61183034E-25
  -1.56399999E-02     9.61723207E-25
  -1.56299993E-02     9.61958090E-25
  -1.56199997E-02     9.61911941E-25
  -1.56100001E-02     9.61631008E-25
  -1.55999996E-02     9.61173962E-25
  -1.55900000E-02     9.60602334E-25
  -1.55800004E-02     9.59970752E-25
  -1.55699998E-02     9.59319646E-25
  -1.55600002E-02     9.58670906E-25
  -1.55499997E-02     9.58026111E-25
  -1.55400001E-02     9.57369385E-25
  -1.55300004E-02     9.56672820E-25
  -1.55199999E-02     9.55904864E-25
  -1.55100003E-02     9.55040766E-25
  -1.54999997E-02     9.54072143E-25
  -1.54900001E-02     9.53014577E-25
  -1.54799996E-02     9.51912341E-25
  -1.54700000E-02     9.50836926E-25
  -1.54600004E-02     9.49881517E-25
  -1.54499998E-02     9.49150539E-25
  -1.54400002E-02     9.48745952E-25
  -1.54299997E-02     9.48752854E-25
  -1.54200001E-02     9.49225086E-25
  -1.54100005E-02     9.50173987E-25
  -1.53999999E-02     9.51560509E-25
  -1.53900003E-02     9.53294524E-25
  -1.53799998E-02     9.55239559E-25
  -1.53700002E-02     9.57224530E-25
  -1.53599996E-02     9.59061195E-25
  -1.53500000E-02     9.60564863E-25
  -1.53400004E-02     9.61576281E-25
  -1.53299998E-02     9.61980178E-25
  -1.53200002E-02     9.61718079E-25
  -1.53099997E-02     9.60795407E-25
  -1.53000001E-02     9.59280104E-25
  -1.52899995E-02     9.57294837E-25
  -1.52799999E-02     9.55001717E-25
  -1.52700003E-02     9.52582872E-25
  -1.52599998E-02     9.50217473E-25
  -1.52500002E-02     9.48060530E-25
  -1.52399996E-02     9.46222484E-25
  -1.52300000E-02     9.44757668E-25
  -1.52200004E-02     9.43660363E-25
  -1.52099999E-02     9.42869135E-25
  -1.52000003E-02     9.42280546E-25
  -1.51899997E-02     9.41767294E-25
  -1.51800001E-02     9.41199807E-25
  -1.51699996E-02     9.40467054E-25
  -1.51600000E-02     9.39495177E-25
  -1.51500003E-02     9.38261201E-25
  -1.51399998E-02     9.36799935E-25
  -1.51300002E-02     9.35202689E-25
  -1.51199996E-02     9.33607711E-25
  -1.51100000E-02     9.32183028E-25
  -1.51000004E-02     9.31104359E-25
  -1.50899999E-02     9.30530364E-25
  -1.50800003E-02     9.30581049E-25
  -1.50699997E-02     9.31321099E-25
  -1.50600001E-02     9.32750416E-25
  -1.50499996E-02     9.34803328E-25
  -1.50400000E-02     9.37354110E-25
  -1.50300004E-02     9.40231086E-25
  -1.50199998E-02     9.43234772E-25
  -1.50100002E-02     9.46160263E-25
  -1.49999997E-02     9.48819907E-25
  -1.49900001E-02     9.51064217E-25
  -1.49800004E-02     9.52796161E-25
  -1.49699999E-02     9.53979945E-25
  -1.49600003E-02     9.54639531E-25
  -1.49499997E-02     9.54850946E-25
  -1.49400001E-02     9.54726109E-25
  -1.49299996E-02     9.54395971E-25
  -1.49200000E-02     9.53990792E-25
  -1.49100004E-02     9.53623577E-25
  -1.48999998E-02     9.53374889E-25
  -1.48900002E-02     9.53283973E-25
  -1.48799997E-02     9.53345405E-25
  -1.48700001E-02     9.53512742E-25
  -1.48600005E-02     9.53708577E-25
  -1.48499999E-02     9.53839232E-25
  -1.48400003E-02     9.53813200E-25
  -1.48299998E-02     9.53557510E-25
  -1.48200002E-02     9.53031931E-25
  -1.48099996E-02     9.52237253E-25
  -1.48000000E-02     9.51217157E-25
  -1.47900004E-02     9.50055658E-25
  -1.47799999E-02     9.48867633E-25
  -1.47700002E-02     9.47785711E-25
  -1.47599997E-02     9.46943503E-25
  -1.47500001E-02     9.46457565E-25
  -1.47399995E-02     9.46410134E-25
  -1.47299999E-02     9.46835429E-25
  -1.47200003E-02     9.47712051E-25
  -1.47099998E-02     9.48963283E-25
  -1.47000002E-02     9.50464189E-25
  -1.46899996E-02     9.52056012E-25
  -1.46800000E-02     9.53563328E-25
  -1.46700004E-02     9.54813179E-25
  -1.46599999E-02     9.55653514E-25
  -1.46500003E-02     9.55969847E-25
  -1.46399997E-02     9.55699169E-25
  -1.46300001E-02     9.54836648E-25
  -1.46199996E-02     9.53437800E-25
  -1.46100000E-02     9.51611587E-25
  -1.46000003E-02     9.49507400E-25
  -1.45899998E-02     9.47295927E-25
  -1.45800002E-02     9.45148844E-25
  -1.45699997E-02     9.43217812E-25
  -1.45600000E-02     9.41618889E-25
  -1.45500004E-02     9.40420708E-25
  -1.45399999E-02     9.39639933E-25
  -1.45300003E-02     9.39240671E-25
  -1.45199997E-02     9.39140091E-25
  -1.45100001E-02     9.39219766E-25
  -1.44999996E-02     9.39340955E-25
  -1.44900000E-02     9.39363240E-25
  -1.44800004E-02     9.39164250E-25
  -1.44699998E-02     9.38656618E-25
  -1.44600002E-02     9.37800507E-25
  -1.44499997E-02     9.36607354E-25
  -1.44400001E-02     9.35138298E-25
  -1.44300004E-02     9.33495200E-25
  -1.44199999E-02     9.31808220E-25
  -1.44100003E-02     9.30222610E-25
  -1.43999998E-02     9.28881744E-25
  -1.43900001E-02     9.27912431E-25
  -1.43799996E-02     9.27409532E-25
  -1.43700000E-02     9.27423830E-25
  -1.43600004E-02     9.27954832E-25
  -1.43499998E-02     9.28951164E-25
  -1.43400002E-02     9.30316682E-25
  -1.43299997E-02     9.31923000E-25
  -1.43200001E-02     9.33623685E-25
  -1.43100005E-02     9.35270531E-25
  -1.42999999E-02     9.36726670E-25
  -1.42900003E-02     9.37878012E-25
  -1.42799998E-02     9.38642123E-25
  -1.42700002E-02     9.38975120E-25
  -1.42599996E-02     9.38875625E-25
  -1.42500000E-02     9.38382883E-25
  -1.42400004E-02     9.37573019E-25
  -1.42299999E-02     9.36548486E-25
  -1.42200002E-02     9.35426725E-25
  -1.42099997E-02     9.34327053E-25
  -1.42000001E-02     9.33360304E-25
  -1.41899996E-02     9.32620747E-25
  -1.41799999E-02     9.32180760E-25
  -1.41700003E-02     9.32087970E-25
  -1.41599998E-02     9.32363381E-25
  -1.41500002E-02     9.32999795E-25
  -1.41399996E-02     9.33963093E-25
  -1.41300000E-02     9.35196378E-25
  -1.41200004E-02     9.36625597E-25
  -1.41099999E-02     9.38168017E-25
  -1.41000003E-02     9.39739921E-25
  -1.40899997E-02     9.41264198E-25
  -1.40800001E-02     9.42674878E-25
  -1.40699996E-02     9.43919602E-25
  -1.40600000E-02     9.44962871E-25
  -1.40500003E-02     9.45786047E-25
  -1.40399998E-02     9.46389427E-25
  -1.40300002E-02     9.46791943E-25
  -1.40199997E-02     9.47028404E-25
  -1.40100000E-02     9.47144564E-25
  -1.40000004E-02     9.47189726E-25
  -1.39899999E-02     9.47210434E-25
  -1.39800003E-02     9.47243960E-25
  -1.39699997E-02     9.47315845E-25
  -1.39600001E-02     9.47439006E-25
  -1.39499996E-02     9.47614429E-25
  -1.39400000E-02     9.47832944E-25
  -1.39300004E-02     9.48076307E-25
  -1.39199998E-02     9.48321150E-25
  -1.39100002E-02     9.48542524E-25