  -2.19999999E-02     1.00000002E-24
  -2.19899993E-02     9.99999428E-25
  -2.19800007E-02     9.99998343E-25
  -2.19700001E-02     9.99997456E-25
  -2.19599996E-02     9.99996963E-25
  -2.19500009E-02     9.99996765E-25
  -2.19400004E-02     9.99996765E-25
  -2.19299998E-02     9.99996371E-25
  -2.19199993E-02     9.99995582E-25
  -2.19100006E-02     9.99994399E-25
  -2.19000001E-02     9.99993117E-25
  -2.18899995E-02     9.99992230E-25
  -2.18800008E-02     9.99991934E-25
  -2.18700003E-02     9.99991835E-25
  -2.18599997E-02     9.99991835E-25
  -2.18499992E-02     9.99991638E-25
  -2.18400005E-02     9.99990849E-25
  -2.18300000E-02     9.99989764E-25
  -2.18199994E-02     9.99988384E-25
  -2.18100008E-02     9.99987398E-25
  -2.18000002E-02     9.99987003E-25
  -2.17899997E-02     9.99987102E-25
  -2.17799991E-02     9.99987102E-25
  -2.17700005E-02     9.99986806E-25
  -2.17599999E-02     9.99985919E-25
  -2.17499994E-02     9.99984637E-25
  -2.17400007E-02     9.99983552E-25
  -2.17300002E-02     9.99982862E-25
  -2.17199996E-02     9.99982862E-25
  -2.17099991E-02     9.99983059E-25
  -2.17000004E-02     9.99983059E-25
  -2.16899998E-02     9.99982369E-25
  -2.16799993E-02     9.99981087E-25
  -2.16700006E-02     9.99979706E-25
  -2.16600001E-02     9.99978720E-25
  -2.16499995E-02     9.99978720E-25
  -2.16400009E-02     9.99979411E-25
  -2.16300003E-02     9.99980397E-25
  -2.16199998E-02     9.99981185E-25
  -2.16099992E-02     9.99981185E-25
  -2.16000006E-02     9.99980692E-25
  -2.15900000E-02     9.99980101E-25
  -2.15799995E-02     9.99980002E-25
  -2.15700008E-02     9.99980397E-25
  -2.15600003E-02     9.99980791E-25
  -2.15499997E-02     9.99980199E-25
  -2.15399992E-02     9.99978129E-25
  -2.15300005E-02     9.99974480E-25
  -2.15200000E-02     9.99969451E-25
  -2.15099994E-02     9.99963436E-25
  -2.15000007E-02     9.99956829E-25
  -2.14900002E-02     9.99949335E-25
  -2.14799996E-02     9.99940165E-25
  -2.14699991E-02     9.99928825E-25
  -2.14600004E-02     9.99915611E-25
  -2.14499999E-02     9.99901806E-25
  -2.14399993E-02     9.99889480E-25
  -2.14300007E-02     9.99881690E-25
  -2.14200001E-02     9.99881000E-25
  -2.14099996E-02     9.99889776E-25
  -2.14000009E-02     9.99909695E-25
  -2.13900004E-02     9.99941940E-25
  -2.13799998E-02     9.99987201E-25
  -2.13699993E-02     1.00004429E-24
  -2.13600006E-02     1.00010997E-24
  -2.13500001E-02     1.00017771E-24
  -2.13399995E-02     1.00023766E-24
  -2.13300008E-02     1.00027612E-24
  -2.13200003E-02     1.00027652E-24
  -2.13099997E-02     1.00022070E-24
  -2.12999992E-02     1.00009005E-24
  -2.12900005E-02     9.99866406E-25
  -2.12800000E-02     9.99533211E-25
  -2.12699994E-02     9.99076954E-25
  -2.12600008E-02     9.98487872E-25
  -2.12500002E-02     9.97761134E-25
  -2.12399997E-02     9.96898120E-25
  -2.12299991E-02     9.95906719E-25
  -2.12200005E-02     9.94800933E-25
  -2.12099999E-02     9.93599301E-25
  -2.11999994E-02     9.92323713E-25
  -2.11900007E-02     9.90996750E-25
  -2.11800002E-02     9.89640304E-25
  -2.11699996E-02     9.88273011E-25
  -2.11599991E-02     9.86909859E-25
  -2.11500004E-02     9.85560611E-25
  -2.11399999E-02     9.84229704E-25
  -2.11299993E-02     9.82916349E-25
  -2.11200006E-02     9.81614926E-25
  -2.11100001E-02     9.80316362E-25
  -2.10999995E-02     9.79009318E-25
  -2.10900009E-02     9.77683440E-25
  -2.10800003E-02     9.76331037E-25
  -2.10699998E-02     9.74948460E-25
  -2.10599992E-02     9.73538272E-25
  -2.10500006E-02     9.72109053E-25
  -2.10400000E-02     9.70675101E-25
  -2.10299995E-02     9.69255941E-25
  -2.10200008E-02     9.67874842E-25
  -2.10100003E-02     9.66558628E-25
  -2.09999997E-02     9.65335105E-25
  -2.09899992E-02     9.64232573E-25
  -2.09800005E-02     9.63277263E-25
  -2.09700000E-02     9.62491951E-25
  -2.09599994E-02     9.61894882E-25
  -2.09500007E-02     9.61498776E-25
  -2.09400002E-02     9.61310829E-25
  -2.09299996E-02     9.61332622E-25
  -2.09199991E-02     9.61560110E-25
  -2.09100004E-02     9.61984024E-25
  -2.08999999E-02     9.62590066E-25
  -2.08899993E-02     9.63358318E-25
  -2.08800007E-02     9.64263733E-25
  -2.08700001E-02     9.65276433E-25
  -2.08599996E-02     9.66362103E-25
  -2.08500009E-02     9.67483962E-25
  -2.08400004E-02     9.68602567E-25
  -2.08299998E-02     9.69678178E-25
  -2.08199993E-02     9.70671650E-25
  -2.08100006E-02     9.71546103E-25
  -2.08000001E-02     9.72268995E-25
  -2.07899995E-02     9.72814098E-25
  -2.07800008E-02     9.73163070E-25
  -2.07700003E-02     9.73307333E-25
  -2.07599998E-02     9.73248563E-25
  -2.07499992E-02     9.72998790E-25
  -2.07400005E-02     9.72579510E-25
  -2.07300000E-02     9.72020701E-25
  -2.07199994E-02     9.71358452E-25
  -2.07100008E-02     9.70633588E-25
  -2.07000002E-02     9.69889199E-25
  -2.06899997E-02     9.69168870E-25
  -2.06799991E-02     9.68514116E-25
  -2.06700005E-02     9.67963293E-25
  -2.06599999E-02     9.67549733E-25
  -2.06499994E-02     9.67300552E-25
  -2.06400007E-02     9.67236851E-25
  -2.06300002E-02     9.67373226E-25
  -2.06199996E-02     9.67718056E-25
  -2.06099991E-02     9.68274401E-25
  -2.06000004E-02     9.69039990E-25
  -2.05899999E-02     9.70007232E-25
  -2.05799993E-02     9.71164195E-25
  -2.05700006E-02     9.72494708E-25
  -2.05600001E-02     9.73977865E-25
  -2.05499995E-02     9.75589310E-25
  -2.05400009E-02     9.77301237E-25
  -2.05300003E-02     9.79083767E-25
  -2.05199998E-02     9.80904557E-25
  -2.05099992E-02     9.82730079E-25
  -2.05000006E-02     9.84526414E-25
  -2.04900000E-02     9.86259542E-25
  -2.04799995E-02     9.87897118E-25
  -2.04700008E-02     9.89408872E-25
  -2.04600003E-02     9.90768572E-25
  -2.04499997E-02     9.91953540E-25
  -2.04399992E-02     9.92946223E-25
  -2.04300005E-02     9.93733900E-25
  -2.04200000E-02     9.94307994E-25
  -2.04099994E-02     9.94664460E-25
  -2.04000007E-02     9.94803004E-25
  -2.03900002E-02     9.94726977E-25
  -2.03799997E-02     9.94442988E-25
  -2.03699991E-02     9.93960402E-25
  -2.03600004E-02     9.93290363E-25
  -2.03499999E-02     9.92446381E-25
  -2.03399993E-02     9.91443541E-25
  -2.03300007E-02     9.90298411E-25
  -2.03200001E-02     9.89029725E-25
  -2.03099996E-02     9.87659770E-25
  -2.03000009E-02     9.86214084E-25
  -2.02900004E-02     9.84722052E-25
  -2.02799998E-02     9.83216807E-25
  -2.02699993E-02     9.81734734E-25
  -2.02600006E-02     9.80313700E-25
  -2.02500001E-02     9.78992949E-25
  -2.02399995E-02     9.77811630E-25
  -2.02300008E-02     9.76807509E-25
  -2.02200003E-02     9.76015098E-25
  -2.02099998E-02     9.75464177E-25
  -2.01999992E-02     9.75178314E-25
  -2.01900005E-02     9.75172792E-25
  -2.01800000E-02     9.75453922E-25
  -2.01699995E-02     9.76019535E-25
  -2.01600008E-02     9.76859081E-25
  -2.01500002E-02     9.77954710E-25
  -2.01399997E-02     9.79282856E-25
  -2.01299991E-02     9.80814824E-25
  -2.01200005E-02     9.82518369E-25
  -2.01099999E-02     9.84358781E-25
  -2.00999994E-02     9.86300464E-25
  -2.00900007E-02     9.88308509E-25
  -2.00800002E-02     9.90350377E-25
  -2.00699996E-02     9.92397767E-25
  -2.00599991E-02     9.94427605E-25
  -2.00500004E-02     9.96421648E-25
  -2.00399999E-02     9.98366289E-25
  -2.00299993E-02     1.00025255E-24
  -2.00200006E-02     1.00207482E-24
  -2.00100001E-02     1.00383122E-24
  -1.99999996E-02     1.00552372E-24
  -1.99900009E-02     1.00715637E-24
  -1.99800003E-02     1.00873498E-24
  -1.99699998E-02     1.01026497E-24
  -1.99599992E-02     1.01175089E-24
  -1.99500006E-02     1.01319569E-24
  -1.99400000E-02     1.01460124E-24
  -1.99299995E-02     1.01596883E-24
  -1.99200008E-02     1.01730023E-24
  -1.99100003E-02     1.01859870E-24
  -1.98999997E-02     1.01986827E-24
  -1.98899992E-02     1.02111398E-24
  -1.98800005E-02     1.02234145E-24
  -1.98700000E-02     1.02355649E-24
  -1.98599994E-02     1.02476503E-24
  -1.98500007E-02     1.02597277E-24
  -1.98400002E-02     1.02718426E-24
  -1.98299997E-02     1.02840098E-24
  -1.98199991E-02     1.02961977E-24
  -1.98100004E-02     1.03083117E-24
  -1.97999999E-02     1.03201791E-24
  -1.97899994E-02     1.03315614E-24
  -1.97800007E-02     1.03421568E-24
  -1.97700001E-02     1.03516192E-24
  -1.97599996E-02     1.03595827E-24
  -1.97500009E-02     1.03656855E-24
  -1.97400004E-02     1.03695874E-24
  -1.97299998E-02     1.03710035E-24
  -1.97199993E-02     1.03697245E-24
  -1.97100006E-02     1.03656550E-24
  -1.97000001E-02     1.03588215E-24
  -1.96899995E-02     1.03493906E-24
  -1.96800008E-02     1.03376553E-24
  -1.96700003E-02     1.03240179E-24
  -1.96599998E-02     1.03089595E-24
  -1.96499992E-02     1.02930029E-24
  -1.96400005E-02     1.02766813E-24
  -1.96300000E-02     1.02605057E-24
  -1.96199995E-02     1.02449346E-24
  -1.96100008E-02     1.02303466E-24
  -1.96000002E-02     1.02170237E-24
  -1.95899997E-02     1.02051395E-24
  -1.95799991E-02     1.01947601E-24
  -1.95700005E-02     1.01858627E-24
  -1.95599999E-02     1.01783577E-24
  -1.95499994E-02     1.01721296E-24
  -1.95400007E-02     1.01670602E-24
  -1.95300002E-02     1.01630577E-24
  -1.95199996E-02     1.01600739E-24
  -1.95099991E-02     1.01581086E-24
  -1.95000004E-02     1.01572192E-24
  -1.94899999E-02     1.01575032E-24
  -1.94799993E-02     1.01590986E-24
  -1.94700006E-02     1.01621634E-24
  -1.94600001E-02     1.01668541E-24
  -1.94499996E-02     1.01732952E-24
  -1.94400009E-02     1.01815536E-24
  -1.94300003E-02     1.01916273E-24
  -1.94199998E-02     1.02034366E-24
  -1.94099993E-02     1.02168285E-24
  -1.94000006E-02     1.02315861E-24
  -1.93900000E-02     1.02474521E-24
  -1.93799995E-02     1.02641444E-24
  -1.93700008E-02     1.02813750E-24
  -1.93600003E-02     1.02988641E-24
  -1.93499997E-02     1.03163571E-24
  -1.93399992E-02     1.03336341E-24
  -1.93300005E-02     1.03505305E-24
  -1.93200000E-02     1.03669310E-24
  -1.93099994E-02     1.03827782E-24
  -1.93000007E-02     1.03980584E-24
  -1.92900002E-02     1.04127934E-24
  -1.92799997E-02     1.04270234E-24
  -1.92699991E-02     1.04407979E-24
  -1.92600004E-02     1.04541701E-24
  -1.92499999E-02     1.04671902E-24
  -1.92399994E-02     1.04799077E-24
  -1.92300007E-02     1.04923638E-24
  -1.92200001E-02     1.05045832E-24
  -1.92099996E-02     1.05165749E-24
  -1.92000009E-02     1.05283211E-24
  -1.91900004E-02     1.05397793E-24
  -1.91799998E-02     1.05508825E-24
  -1.91699993E-02     1.05615439E-24
  -1.91600006E-02     1.05716650E-24
  -1.91500001E-02     1.05811432E-24
  -1.91399995E-02     1.05898749E-24
  -1.91300008E-02     1.05977674E-24
  -1.91200003E-02     1.06047429E-24
  -1.91099998E-02     1.06107560E-24
  -1.90999992E-02     1.06157978E-24
  -1.90900005E-02     1.06199127E-24
  -1.90800000E-02     1.06231944E-24
  -1.90699995E-02     1.06257789E-24
  -1.90600008E-02     1.06278280E-24
  -1.90500002E-02     1.06295063E-24
  -1.90399997E-02     1.06309578E-24
  -1.90299992E-02     1.06322880E-24
  -1.90200005E-02     1.06335403E-24
  -1.90099999E-02     1.06346901E-24
  -1.89999994E-02     1.06356308E-24
  -1.89900007E-02     1.06361721E-24
  -1.89800002E-02     1.06360558E-24
  -1.89699996E-02     1.06349681E-24
  -1.89599991E-02     1.06325769E-24
  -1.89500004E-02     1.06285646E-24
  -1.89399999E-02     1.06226777E-24
  -1.89299993E-02     1.06147536E-24
  -1.89200006E-02     1.06047567E-24
  -1.89100001E-02     1.05927996E-24
  -1.88999996E-02     1.05791414E-24
  -1.88900009E-02     1.05641787E-24
  -1.88800003E-02     1.05484242E-24
  -1.88699998E-02     1.05324685E-24
  -1.88599993E-02     1.05169329E-24
  -1.88500006E-02     1.05024178E-24
  -1.88400000E-02     1.04894420E-24
  -1.88299995E-02     1.04784049E-24
  -1.88200008E-02     1.04695430E-24
  -1.88100003E-02     1.04629205E-24
  -1.87999997E-02     1.04584349E-24
  -1.87899992E-02     1.04558385E-24
  -1.87800005E-02     1.04547894E-24
  -1.87700000E-02     1.04548949E-24
  -1.87599994E-02     1.04557754E-24
  -1.87500007E-02     1.04571145E-24
  -1.87400002E-02     1.04587011E-24
  -1.87299997E-02     1.04604593E-24
  -1.87199991E-02     1.04624551E-24
  -1.87100004E-02     1.04648828E-24
  -1.86999999E-02     1.04680294E-24
  -1.86899994E-02     1.04722182E-24
  -1.86800007E-02     1.04777561E-24
  -1.86700001E-02     1.04848686E-24
  -1.86599996E-02     1.04936546E-24
  -1.86500009E-02     1.05040458E-24
  -1.86400004E-02     1.05157920E-24
  -1.86299998E-02     1.05284739E-24
  -1.86199993E-02     1.05415374E-24
  -1.86100006E-02     1.05543456E-24
  -1.86000001E-02     1.05662386E-24
  -1.85899995E-02     1.05766112E-24
  -1.85800008E-02     1.05849731E-24
  -1.85700003E-02     1.05910039E-24
  -1.85599998E-02     1.05945844E-24
  -1.85499992E-02     1.05958160E-24
  -1.85400005E-02     1.05949995E-24
  -1.85300000E-02     1.05926024E-24
  -1.85199995E-02     1.05892073E-24
  -1.85100008E-02     1.05854375E-24
  -1.85000002E-02     1.05818936E-24
  -1.84899997E-02     1.05790833E-24
  -1.84799992E-02     1.05773705E-24
  -1.84700005E-02     1.05769415E-24
  -1.84599999E-02     1.05777905E-24
  -1.84499994E-02     1.05797400E-24
  -1.84400007E-02     1.05824645E-24
  -1.84300002E-02     1.05855401E-24
  -1.84199996E-02     1.05884983E-24
  -1.84099991E-02     1.05908836E-24
  -1.84000004E-02     1.05923095E-24
  -1.83899999E-02     1.05924978E-24
  -1.83799993E-02     1.05913195E-24
  -1.83700006E-02     1.05887951E-24
  -1.83600001E-02     1.05850934E-24
  -1.83499996E-02     1.05804894E-24
  -1.83400009E-02     1.05753362E-24
  -1.83300003E-02     1.05700084E-24
  -1.83199998E-02     1.05648542E-24
  -1.83099993E-02     1.05601555E-24
  -1.83000006E-02     1.05560959E-24
  -1.82900000E-02     1.05527333E-24
  -1.82799995E-02     1.05499960E-24
  -1.82700008E-02     1.05476827E-24
  -1.82600003E-02     1.05454788E-24
  -1.82499997E-02     1.05429998E-24
  -1.82399992E-02     1.05398305E-24
  -1.82300005E-02     1.05355707E-24
  -1.82200000E-02     1.05298869E-24
  -1.82099994E-02     1.05225357E-24
  -1.82000007E-02     1.05133889E-24
  -1.81900002E-02     1.05024425E-24
  -1.81799997E-02     1.04898187E-24
  -1.81699991E-02     1.04757533E-24
  -1.81600004E-02     1.04605885E-24
  -1.81499999E-02     1.04447422E-24
  -1.81399994E-02     1.04286830E-24
  -1.81300007E-02     1.04128880E-24
  -1.81200001E-02     1.03978139E-24
  -1.81099996E-02     1.03838570E-24
  -1.81000009E-02     1.03713377E-24
  -1.80900004E-02     1.03604840E-24
  -1.80799998E-02     1.03514279E-24
  -1.80699993E-02     1.03442068E-24
  -1.80600006E-02     1.03387706E-24
  -1.80500001E-02     1.03349850E-24
  -1.80399995E-02     1.03326471E-24
  -1.80300009E-02     1.03314983E-24
  -1.80200003E-02     1.03312626E-24
  -1.80099998E-02     1.03316817E-24
  -1.79999992E-02     1.03325455E-24
  -1.79900005E-02     1.03337219E-24
  -1.79800000E-02     1.03351655E-24
  -1.79699995E-02     1.03369247E-24
  -1.79600008E-02     1.03391364E-24
  -1.79500002E-02     1.03420108E-24
  -1.79399997E-02     1.03458151E-24
  -1.79299992E-02     1.03508441E-24
  -1.79200005E-02     1.03573897E-24
  -1.79099999E-02     1.03656993E-24
  -1.78999994E-02     1.03759259E-24
  -1.78900007E-02     1.03880882E-24
  -1.78800002E-02     1.04020481E-24
  -1.78699996E-02     1.04174989E-24
  -1.78599991E-02     1.04339871E-24
  -1.78500004E-02     1.04509348E-24
  -1.78399999E-02     1.04676872E-24
  -1.78299993E-02     1.04835552E-24
  -1.78200006E-02     1.04978641E-24
  -1.78100001E-02     1.05100106E-24
  -1.77999996E-02     1.05195105E-24
  -1.77900009E-02     1.05260521E-24
  -1.77800003E-02     1.05295290E-24
  -1.77699998E-02     1.05300516E-24
  -1.77599993E-02     1.05279316E-24
  -1.77500006E-02     1.05236392E-24
  -1.77400000E-02     1.05177434E-24
  -1.77299995E-02     1.05108517E-24
  -1.77200008E-02     1.05035419E-24
  -1.77100003E-02     1.04963091E-24
  -1.76999997E-02     1.04895219E-24
  -1.76899992E-02     1.04833875E-24
  -1.76800005E-02     1.04779395E-24
  -1.76700000E-02     1.04730278E-24
  -1.76599994E-02     1.04683449E-24
  -1.76500008E-02     1.04634629E-24
  -1.76400002E-02     1.04578985E-24
  -1.76299997E-02     1.04511813E-24
  -1.76199991E-02     1.04429180E-24
  -1.76100004E-02     1.04328314E-24
  -1.75999999E-02     1.04208003E-24
  -1.75899994E-02     1.04068621E-24
  -1.75800007E-02     1.03912180E-24
  -1.75700001E-02     1.03742092E-24
  -1.75599996E-02     1.03562932E-24
  -1.75500009E-02     1.03380044E-24
  -1.75400004E-02     1.03198951E-24
  -1.75299998E-02     1.03024721E-24
  -1.75199993E-02     1.02861358E-24
  -1.75100006E-02     1.02711317E-24
  -1.75000001E-02     1.02575327E-24
  -1.74899995E-02     1.02452423E-24
  -1.74800009E-02     1.02340187E-24
  -1.74700003E-02     1.02235210E-24
  -1.74599998E-02     1.02133575E-24
  -1.74499992E-02     1.02031437E-24
  -1.74400005E-02     1.01925503E-24
  -1.74300000E-02     1.01813514E-24
  -1.74199995E-02     1.01694613E-24
  -1.74100008E-02     1.01569549E-24
  -1.74000002E-02     1.01440659E-24
  -1.73899997E-02     1.01311592E-24
  -1.73799992E-02     1.01186912E-24
  -1.73700005E-02     1.01071403E-24
  -1.73599999E-02     1.00969532E-24
  -1.73499994E-02     1.00884946E-24
  -1.73400007E-02     1.00820092E-24
  -1.73300002E-02     1.00776064E-24
  -1.73199996E-02     1.00752487E-24
  -1.73099991E-02     1.00747605E-24
  -1.73000004E-02     1.00758433E-24
  -1.72899999E-02     1.00781043E-24
  -1.72799993E-02     1.00811040E-24
  -1.72700007E-02     1.00843994E-24
  -1.72600001E-02     1.00876111E-24
  -1.72499996E-02     1.00904599E-24
  -1.72400009E-02     1.00928057E-24
  -1.72300003E-02     1.00946566E-24
  -1.72199998E-02     1.00961633E-24
  -1.72099993E-02     1.00975882E-24
  -1.72000006E-02     1.00992783E-24
  -1.71900000E-02     1.01016094E-24
  -1.71799995E-02     1.01049483E-24
  -1.71700008E-02     1.01095907E-24
  -1.71600003E-02     1.01157231E-24
  -1.71499997E-02     1.01233879E-24
  -1.71399992E-02     1.01324519E-24
  -1.71300005E-02     1.01426223E-24
  -1.71200000E-02     1.01534593E-24
  -1.71099994E-02     1.01644294E-24
  -1.71000008E-02     1.01749469E-24
  -1.70900002E-02     1.01844300E-24
  -1.70799997E-02     1.01923422E-24
  -1.70699991E-02     1.01982183E-24
  -1.70600004E-02     1.02016971E-24
  -1.70499999E-02     1.02025333E-24
  -1.70399994E-02     1.02006095E-24
  -1.70300007E-02     1.01959424E-24
  -1.70200001E-02     1.01886671E-24
  -1.70099996E-02     1.01790233E-24
  -1.70000009E-02     1.01673206E-24
  -1.69900004E-02     1.01539139E-24
  -1.69799998E-02     1.01391641E-24
  -1.69699993E-02     1.01234155E-24
  -1.69600006E-02     1.01069638E-24
  -1.69500001E-02     1.00900516E-24
  -1.69399995E-02     1.00728525E-24
  -1.69300009E-02     1.00554650E-24
  -1.69200003E-02     1.00379296E-24
  -1.69099998E-02     1.00202364E-24
  -1.68999992E-02     1.00023480E-24
  -1.68900006E-02     9.98423382E-25
  -1.68800000E-02     9.96589478E-25
  -1.68699995E-02     9.94739303E-25
  -1.68600008E-02     9.92885973E-25
  -1.68500002E-02     9.91049505E-25
  -1.68399997E-02     9.89255635E-25
  -1.68299992E-02     9.87533848E-25
  -1.68200005E-02     9.85915500E-25
  -1.68099999E-02     9.84430864E-25
  -1.67999994E-02     9.83107352E-25
  -1.67900007E-02     9.81966758E-25
  -1.67800002E-02     9.81023477E-25
  -1.67699996E-02     9.80282145E-25
  -1.67599991E-02     9.79737043E-25
  -1.67500004E-02     9.79370814E-25
  -1.67399999E-02     9.79156441E-25
  -1.67299993E-02     9.79057932E-25
  -1.67200007E-02     9.79033773E-25
  -1.67100001E-02     9.79039394E-25
  -1.66999996E-02     9.79030913E-25
  -1.66900009E-02     9.78968889E-25
  -1.66800003E-02     9.78821471E-25
  -1.66699998E-02     9.78567655E-25
  -1.66599993E-02     9.78200046E-25
  -1.66500006E-02     9.77725546E-25
  -1.66400000E-02     9.77164764E-25
  -1.66299995E-02     9.76549946E-25
  -1.66200008E-02     9.75921520E-25
  -1.66100003E-02     9.75323464E-25
  -1.65999997E-02     9.74798872E-25
  -1.65899992E-02     9.74385805E-25
  -1.65800005E-02     9.74113746E-25
  -1.65700000E-02     9.74001629E-25
  -1.65599994E-02     9.74055765E-25
  -1.65500008E-02     9.74269152E-25
  -1.65400002E-02     9.74622266E-25
  -1.65299997E-02     9.75085031E-25
  -1.65199991E-02     9.75618301E-25
  -1.65100005E-02     9.76179280E-25
  -1.64999999E-02     9.76725369E-25
  -1.64899994E-02     9.77218308E-25
  -1.64800007E-02     9.77629206E-25
  -1.64700001E-02     9.77941003E-25
  -1.64599996E-02     9.78150446E-25
  -1.64500009E-02     9.78269071E-25
  -1.64400004E-02     9.78321432E-25
  -1.64299998E-02     9.78342435E-25
  -1.64199993E-02     9.78372806E-25
  -1.64100006E-02     9.78453369E-25
  -1.64000001E-02     9.78618734E-25
  -1.63899995E-02     9.78891088E-25
  -1.63800009E-02     9.79276249E-25
  -1.63700003E-02     9.79762385E-25
  -1.63599998E-02     9.80319616E-25
  -1.63499992E-02     9.80903866E-25
  -1.63400006E-02     9.81462281E-25
  -1.63300000E-02     9.81938753E-25
  -1.63199995E-02     9.82281513E-25
  -1.63100008E-02     9.82448160E-25
  -1.63000003E-02     9.82410985E-25
  -1.62899997E-02     9.82159240E-25
  -1.62799992E-02     9.81700024E-25
  -1.62700005E-02     9.81057497E-25
  -1.62599999E-02     9.80269326E-25
  -1.62499994E-02     9.79381858E-25
  -1.62400007E-02     9.78444001E-25
  -1.62300002E-02     9.77502397E-25
  -1.62199996E-02     9.76595798E-25
  -1.62099991E-02     9.75751520E-25
  -1.62000004E-02     9.74983071E-25
  -1.61899999E-02     9.74289268E-25
  -1.61799993E-02     9.73654826E-25
  -1.61700007E-02     9.73052827E-25
  -1.61600001E-02     9.72448165E-25
  -1.61499996E-02     9.71802384E-25
  -1.61400009E-02     9.71079689E-25
  -1.61300004E-02     9.70251483E-25
  -1.61199998E-02     9.69301300E-25
  -1.61099993E-02     9.68227069E-25
  -1.61000006E-02     9.67041904E-25
  -1.60900000E-02     9.65772430E-25
  -1.60799995E-02     9.64455722E-25
  -1.60700008E-02     9.63134084E-25
  -1.60600003E-02     9.61850312E-25
  -1.60499997E-02     9.60641580E-25
  -1.60399992E-02     9.59535104E-25
  -1.60300005E-02     9.58544590E-25
  -1.60200000E-02     9.57668461E-25
  -1.60099994E-02     9.56890250E-25
  -1.60000008E-02     9.56181064E-25
  -1.59900002E-02     9.55504024E-25
  -1.59799997E-02     9.54818208E-25
  -1.59699991E-02     9.54083187E-25
  -1.59600005E-02     9.53264054E-25
  -1.59499999E-02     9.52334283E-25
  -1.59399994E-02     9.51279083E-25
  -1.59300007E-02     9.50096876E-25
  -1.59200002E-02     9.48799200E-25
  -1.59099996E-02     9.47410114E-25
  -1.59000009E-02     9.45963738E-25
  -1.58900004E-02     9.44500401E-25
  -1.58799998E-02     9.43063096E-25
  -1.58699993E-02     9.41692845E-25
  -1.58600006E-02     9.40425540E-25
  -1.58500001E-02     9.39289087E-25
  -1.58399995E-02     9.38302715E-25
  -1.58300009E-02     9.37475989E-25
  -1.58200003E-02     9.36810092E-25
  -1.58099998E-02     9.36299797E-25
  -1.57999992E-02     9.35936527E-25
  -1.57900006E-02     9.35712195E-25
  -1.57800000E-02     9.35621969E-25
  -1.57699995E-02     9.35666835E-25
  -1.57600008E-02     9.35854584E-25
  -1.57500003E-02     9.36198133E-25
  -1.57399997E-02     9.36713062E-25
  -1.57299992E-02     9.37414556E-25
  -1.57200005E-02     9.38314252E-25
  -1.57099999E-02     9.39417770E-25
  -1.56999994E-02     9.40724124E-25
  -1.56900007E-02     9.42224932E-25
  -1.56800002E-02     9.43904811E-25
  -1.56699996E-02     9.45742068E-25
  -1.56599991E-02     9.47709783E-25
  -1.56500004E-02     9.49777289E-25
  -1.56399999E-02     9.51912143E-25
  -1.56299993E-02     9.54081708E-25
  -1.56199997E-02     9.56254428E-25
  -1.56100001E-02     9.58400327E-25
  -1.55999996E-02     9.60490710E-25
  -1.55900000E-02     9.62497769E-25
  -1.55800004E-02     9.64394783E-25
  -1.55699998E-02     9.66156999E-25
  -1.55600002E-02     9.67762824E-25
  -1.55499997E-02     9.69195297E-25
  -1.55400001E-02     9.70443078E-25
  -1.55300004E-02     9.71501335E-25
  -1.55199999E-02     9.72369969E-25
  -1.55100003E-02     9.73054503E-25
  -1.54999997E-02     9.73564699E-25
  -1.54900001E-02     9.73914263E-25
  -1.54799996E-02     9.74120747E-25
  -1.54700000E-02     9.74204564E-25
  -1.54600004E-02     9.74186223E-25
  -1.54499998E-02     9.74085249E-25
  -1.54400002E-02     9.73916235E-25
  -1.54299997E-02     9.73686775E-25
  -1.54200001E-02     9.73396277E-25
  -1.54100005E-02     9.73034979E-25
  -1.53999999E-02     9.72585032E-25
  -1.53900003E-02     9.72021687E-25
  -1.53799998E-02     9.71316248E-25
  -1.53700002E-02     9.70438443E-25
  -1.53599996E-02     9.69361254E-25
  -1.53500000E-02     9.68065254E-25
  -1.53400004E-02     9.66542161E-25
  -1.53299998E-02     9.64799370E-25
  -1.53200002E-02     9.62859166E-25
  -1.53099997E-02     9.60757246E-25
  -1.53000001E-02     9.58538969E-25
  -1.52899995E-02     9.56254428E-25
  -1.52799999E-02     9.53951645E-25
  -1.52700003E-02     9.51673119E-25
  -1.52599998E-02     9.49450799E-25
  -1.52500002E-02     9.47303914E-25
  -1.52399996E-02     9.45237887E-25
  -1.52300000E-02     9.43243745E-25
  -1.52200004E-02     9.41300781E-25
  -1.52099999E-02     9.39378721E-25
  -1.52000003E-02     9.37443843E-25
  -1.51899997E-02     9.35464394E-25
  -1.51800001E-02     9.33416215E-25
  -1.51699996E-02     9.31287967E-25
  -1.51600000E-02     9.29084678E-25
  -1.51500003E-02     9.26828635E-25
  -1.51399998E-02     9.24558589E-25
  -1.51300002E-02     9.22327986E-25
  -1.51199996E-02     9.20200921E-25
  -1.51100000E-02     9.18248096E-25
  -1.51000004E-02     9.16540508E-25
  -1.50899999E-02     9.15143041E-25
  -1.50800003E-02     9.14107365E-25
  -1.50699997E-02     9.13466613E-25
  -1.50600001E-02     9.13232321E-25
  -1.50499996E-02     9.13393742E-25
  -1.50400000E-02     9.13920799E-25
  -1.50300004E-02     9.14769318E-25
  -1.50199998E-02     9.15886148E-25
  -1.50100002E-02     9.17214885E-25
  -1.49999997E-02     9.18701001E-25
  -1.49900001E-02     9.20295584E-25
  -1.49800004E-02     9.21958799E-25
  -1.49699999E-02     9.23661950E-25
  -1.49600003E-02     9.25388470E-25
  -1.49499997E-02     9.27134121E-25
  -1.49400001E-02     9.28903733E-25
  -1.49299996E-02     9.30708253E-25
  -1.49200000E-02     9.32560202E-25
  -1.49100004E-02     9.34469640E-25
  -1.48999998E-02     9.36441201E-25
  -1.48900002E-02     9.38472616E-25
  -1.48799997E-02     9.40552941E-25
  -1.48700001E-02     9.42662552E-25
  -1.48600005E-02     9.44772755E-25
  -1.48499999E-02     9.46846276E-25
  -1.48400003E-02     9.48839333E-25
  -1.48299998E-02     9.50705482E-25
  -1.48200002E-02     9.52400448E-25
  -1.48099996E-02     9.53888043E-25
  -1.48000000E-02     9.55145191E-25
  -1.47900004E-02     9.56164104E-25
  -1.47799999E-02     9.56952866E-25
  -1.47700002E-02     9.57533468E-25
  -1.47599997E-02     9.57938252E-25
  -1.47500001E-02     9.58205774E-25
  -1.47399995E-02     9.58376168E-25
  -1.47299999E-02     9.58486609E-25
  -1.47200003E-02     9.58565988E-25
  -1.47099998E-02     9.58631365E-25
  -1.47000002E-02     9.58684909E-25
  -1.46899996E-02     9.58713209E-25
  -1.46800000E-02     9.58689247E-25
  -1.46700004E-02     9.58577032E-25
  -1.46599999E-02     9.58336824E-25
  -1.46500003E-02     9.57930758E-25
  -1.46399997E-02     9.57327476E-25
  -1.46300001E-02     9.56504990E-25
  -1.46199996E-02     9.55452650E-25
  -1.46100000E-02     9.54172131E-25
  -1.46000003E-02     9.52677733E-25
  -1.45899998E-02     9.50996079E-25
  -1.45800002E-02     9.49164541E-25
  -1.45699997E-02     9.47228085E-25
  -1.45600000E-02     9.45235619E-25
  -1.45500004E-02     9.43234476E-25
  -1.45399999E-02     9.41266466E-25
  -1.45300003E-02     9.39364620E-25
  -1.45199997E-02     9.37551029E-25
  -1.45100001E-02     9.35836933E-25
  -1.44999996E-02     9.34223121E-25
  -1.44900000E-02     9.32701507E-25
  -1.44800004E-02     9.31256412E-25
  -1.44699998E-02     9.29867327E-25
  -1.44600002E-02     9.28511669E-25
  -1.44499997E-02     9.27168930E-25
  -1.44400001E-02     9.25824119E-25
  -1.44300004E-02     9.24470828E-25
  -1.44199999E-02     9.23112903E-25
  -1.44100003E-02     9.21763457E-25
  -1.43999998E-02     9.20444088E-25
  -1.43900001E-02     9.19181614E-25
  -1.43799996E-02     9.18006507E-25
  -1.43700000E-02     9.16949631E-25
  -1.43600004E-02     9.16041060E-25
  -1.43499998E-02     9.15307716E-25
  -1.43400002E-02     9.14770896E-25
  -1.43299997E-02     9.14444603E-25
  -1.43200001E-02     9.14333275E-25
  -1.43100005E-02     9.14432672E-25
  -1.42999999E-02     9.14729382E-25
  -1.42900003E-02     9.15204079E-25
  -1.42799998E-02     9.15833294E-25
  -1.42700002E-02     9.16592277E-25
  -1.42599996E-02     9.17456967E-25
  -1.42500000E-02     9.18406361E-25
  -1.42400004E-02     9.19422808E-25
  -1.42299999E-02     9.20493293E-25
  -1.42200002E-02     9.21609925E-25
  -1.42099997E-02     9.22769551E-25
  -1.42000001E-02     9.23971873E-25
  -1.41899996E-02     9.25217288E-25
  -1.41799999E-02     9.26504413E-25
  -1.41700003E-02     9.27828614E-25
  -1.41599998E-02     9.29180130E-25
  -1.41500002E-02     9.30545747E-25
  -1.41399996E-02     9.31909786E-25
  -1.41300000E-02     9.33256175E-25
  -1.41200004E-02     9.34570220E-25
  -1.41099999E-02     9.35839793E-25
  -1.41000003E-02     9.37055033E-25
  -1.40899997E-02     9.38208249E-25
  -1.40800001E-02     9.39293031E-25
  -1.40699996E-02     9.40304154E-25
  -1.40600000E-02     9.41236292E-25
  -1.40500003E-02     9.42083725E-25
  -1.40399998E-02     9.42840835E-25
  -1.40300002E-02     9.43501999E-25
  -1.40199997E-02     9.44062583E-25
  -1.40100000E-02     9.44520615E-25
  -1.40000004E-02     9.44877772E-25
  -1.39899999E-02     9.45140561E-25
  -1.39800003E-02     9.45320225E-25
  -1.39699997E-02     9.45431750E-25
  -1.39600001E-02     9.45491111E-25
  -1.39499996E-02     9.45513298E-25
  -1.39400000E-02     9.45509453E-25
  -1.39300004E-02     9.45486083E-25
  -1.39199998E-02     9.45443977E-25
  -1.39100002E-02     9.45379784E-25