  -2.19999999E-02     1.00000002E-24
  -2.19899993E-02     9.99999428E-25
  -2.19800007E-02     9.99998343E-25
  -2.19700001E-02     9.99997456E-25
  -2.19599996E-02     9.99996963E-25
  -2.19500009E-02     9.99996864E-25
  -2.19400004E-02     9.99996765E-25
  -2.19299998E-02     9.99996470E-25
  -2.19199993E-02     9.99995582E-25
  -2.19100006E-02     9.99994300E-25
  -2.19000001E-02     9.99993018E-25
  -2.18899995E-02     9.99992032E-25
  -2.18800008E-02     9.99991835E-25
  -2.18700003E-02     9.99991835E-25
  -2.18599997E-02     9.99992032E-25
  -2.18499992E-02     9.99991835E-25
  -2.18400005E-02     9.99991046E-25
  -2.18300000E-02     9.99989962E-25
  -2.18199994E-02     9.99988877E-25
  -2.18100008E-02     9.99988187E-25
  -2.18000002E-02     9.99987989E-25
  -2.17899997E-02     9.99988088E-25
  -2.17799991E-02     9.99988088E-25
  -2.17700005E-02     9.99987595E-25
  -2.17599999E-02     9.99986412E-25
  -2.17499994E-02     9.99985031E-25
  -2.17400007E-02     9.99983947E-25
  -2.17300002E-02     9.99983355E-25
  -2.17199996E-02     9.99983453E-25
  -2.17099991E-02     9.99983848E-25
  -2.17000004E-02     9.99984045E-25
  -2.16899998E-02     9.99983749E-25
  -2.16799993E-02     9.99982862E-25
  -2.16700006E-02     9.99981777E-25
  -2.16600001E-02     9.99980791E-25
  -2.16499995E-02     9.99980495E-25
  -2.16400009E-02     9.99980495E-25
  -2.16300003E-02     9.99980594E-25
  -2.16199998E-02     9.99980397E-25
  -2.16099992E-02     9.99979608E-25
  -2.16000006E-02     9.99978523E-25
  -2.15900000E-02     9.99977340E-25
  -2.15799995E-02     9.99976354E-25
  -2.15700008E-02     9.99975663E-25
  -2.15600003E-02     9.99974677E-25
  -2.15499997E-02     9.99972409E-25
  -2.15399992E-02     9.99968169E-25
  -2.15300005E-02     9.99962154E-25
  -2.15200000E-02     9.99955153E-25
  -2.15099994E-02     9.99948349E-25
  -2.15000007E-02     9.99943813E-25
  -2.14900002E-02     9.99942729E-25
  -2.14799996E-02     9.99946476E-25
  -2.14699991E-02     9.99955646E-25
  -2.14600004E-02     9.99970733E-25
  -2.14499999E-02     9.99991638E-25
  -2.14399993E-02     1.00001787E-24
  -2.14300007E-02     1.00004784E-24
  -2.14200001E-02     1.00007881E-24
  -2.14099996E-02     1.00010642E-24
  -2.14000009E-02     1.00012545E-24
  -2.13900004E-02     1.00013087E-24
  -2.13799998E-02     1.00011884E-24
  -2.13699993E-02     1.00008748E-24
  -2.13600006E-02     1.00003788E-24
  -2.13500001E-02     9.99974086E-25
  -2.13399995E-02     9.99902990E-25
  -2.13300008E-02     9.99835049E-25
  -2.13200003E-02     9.99784069E-25
  -2.13099997E-02     9.99767601E-25
  -2.12999992E-02     9.99805664E-25
  -2.12900005E-02     9.99919852E-25
  -2.12800000E-02     1.00013166E-24
  -2.12699994E-02     1.00045993E-24
  -2.12600008E-02     1.00091983E-24
  -2.12500002E-02     1.00152114E-24
  -2.12399997E-02     1.00226780E-24
  -2.12299991E-02     1.00315793E-24
  -2.12200005E-02     1.00418443E-24
  -2.12099999E-02     1.00533459E-24
  -2.11999994E-02     1.00659223E-24
  -2.11900007E-02     1.00793783E-24
  -2.11800002E-02     1.00935147E-24
  -2.11699996E-02     1.01081422E-24
  -2.11599991E-02     1.01231088E-24
  -2.11500004E-02     1.01383141E-24
  -2.11399999E-02     1.01537088E-24
  -2.11299993E-02     1.01692957E-24
  -2.11200006E-02     1.01851153E-24
  -2.11100001E-02     1.02012228E-24
  -2.10999995E-02     1.02176735E-24
  -2.10900009E-02     1.02345019E-24
  -2.10800003E-02     1.02517011E-24
  -2.10699998E-02     1.02692079E-24
  -2.10599992E-02     1.02868774E-24
  -2.10500006E-02     1.03044729E-24
  -2.10400000E-02     1.03216622E-24
  -2.10299995E-02     1.03380261E-24
  -2.10200008E-02     1.03530815E-24
  -2.10100003E-02     1.03663127E-24
  -2.09999997E-02     1.03772088E-24
  -2.09899992E-02     1.03853025E-24
  -2.09800005E-02     1.03902093E-24
  -2.09700000E-02     1.03916578E-24
  -2.09599994E-02     1.03895200E-24
  -2.09500007E-02     1.03838382E-24
  -2.09400002E-02     1.03748393E-24
  -2.09299996E-02     1.03629423E-24
  -2.09199991E-02     1.03487418E-24
  -2.09100004E-02     1.03329892E-24
  -2.08999999E-02     1.03165444E-24
  -2.08899993E-02     1.03003284E-24
  -2.08800007E-02     1.02852720E-24
  -2.08700001E-02     1.02722607E-24
  -2.08599996E-02     1.02620943E-24
  -2.08500009E-02     1.02554353E-24
  -2.08400004E-02     1.02527838E-24
  -2.08299998E-02     1.02544364E-24
  -2.08199993E-02     1.02604811E-24
  -2.08100006E-02     1.02707846E-24
  -2.08000001E-02     1.02850166E-24
  -2.07899995E-02     1.03026782E-24
  -2.07800008E-02     1.03231462E-24
  -2.07700003E-02     1.03457106E-24
  -2.07599998E-02     1.03696229E-24
  -2.07499992E-02     1.03941319E-24
  -2.07400005E-02     1.04185195E-24
  -2.07300000E-02     1.04421232E-24
  -2.07199994E-02     1.04643681E-24
  -2.07100008E-02     1.04847730E-24
  -2.07000002E-02     1.05029592E-24
  -2.06899997E-02     1.05186398E-24
  -2.06799991E-02     1.05316007E-24
  -2.06700005E-02     1.05416844E-24
  -2.06599999E-02     1.05487742E-24
  -2.06499994E-02     1.05527866E-24
  -2.06400007E-02     1.05536681E-24
  -2.06300002E-02     1.05514100E-24
  -2.06199996E-02     1.05460546E-24
  -2.06099991E-02     1.05377095E-24
  -2.06000004E-02     1.05265579E-24
  -2.05899999E-02     1.05128584E-24
  -2.05799993E-02     1.04969569E-24
  -2.05700006E-02     1.04792795E-24
  -2.05600001E-02     1.04603252E-24
  -2.05499995E-02     1.04406421E-24
  -2.05400009E-02     1.04207934E-24
  -2.05300003E-02     1.04013194E-24
  -2.05199998E-02     1.03826944E-24
  -2.05099992E-02     1.03652941E-24
  -2.05000006E-02     1.03493689E-24
  -2.04900000E-02     1.03350393E-24
  -2.04799995E-02     1.03223041E-24
  -2.04700008E-02     1.03110540E-24
  -2.04600003E-02     1.03011054E-24
  -2.04499997E-02     1.02922377E-24
  -2.04399992E-02     1.02842347E-24
  -2.04300005E-02     1.02769259E-24
  -2.04200000E-02     1.02702265E-24
  -2.04099994E-02     1.02641621E-24
  -2.04000007E-02     1.02588748E-24
  -2.03900002E-02     1.02546169E-24
  -2.03799997E-02     1.02517198E-24
  -2.03699991E-02     1.02505562E-24
  -2.03600004E-02     1.02514821E-24
  -2.03499999E-02     1.02548003E-24
  -2.03399993E-02     1.02607059E-24
  -2.03300007E-02     1.02692650E-24
  -2.03200001E-02     1.02803890E-24
  -2.03099996E-02     1.02938371E-24
  -2.03000009E-02     1.03092327E-24
  -2.02900004E-02     1.03260985E-24
  -2.02799998E-02     1.03438982E-24
  -2.02699993E-02     1.03620903E-24
  -2.02600006E-02     1.03801838E-24
  -2.02500001E-02     1.03977833E-24
  -2.02399995E-02     1.04146156E-24
  -2.02300008E-02     1.04305427E-24
  -2.02200003E-02     1.04455528E-24
  -2.02099998E-02     1.04597355E-24
  -2.01999992E-02     1.04732497E-24
  -2.01900005E-02     1.04862787E-24
  -2.01800000E-02     1.04989833E-24
  -2.01699995E-02     1.05114700E-24
  -2.01600008E-02     1.05237486E-24
  -2.01500002E-02     1.05357275E-24
  -2.01399997E-02     1.05472084E-24
  -2.01299991E-02     1.05579093E-24
  -2.01200005E-02     1.05674949E-24
  -2.01099999E-02     1.05756231E-24
  -2.00999994E-02     1.05819853E-24
  -2.00900007E-02     1.05863566E-24
  -2.00800002E-02     1.05886216E-24
  -2.00699996E-02     1.05887951E-24
  -2.00599991E-02     1.05870261E-24
  -2.00500004E-02     1.05835916E-24
  -2.00399999E-02     1.05788732E-24
  -2.00299993E-02     1.05733167E-24
  -2.00200006E-02     1.05673943E-24
  -2.00100001E-02     1.05615518E-24
  -1.99999996E-02     1.05561767E-24
  -1.99900009E-02     1.05515629E-24
  -1.99800003E-02     1.05478956E-24
  -1.99699998E-02     1.05452392E-24
  -1.99599992E-02     1.05435540E-24
  -1.99500006E-02     1.05427069E-24
  -1.99400000E-02     1.05425008E-24
  -1.99299995E-02     1.05426980E-24
  -1.99200008E-02     1.05430471E-24
  -1.99100003E-02     1.05433134E-24
  -1.98999997E-02     1.05432966E-24
  -1.98899992E-02     1.05428479E-24
  -1.98800005E-02     1.05418678E-24
  -1.98700000E-02     1.05403029E-24
  -1.98599994E-02     1.05381305E-24
  -1.98500007E-02     1.05353478E-24
  -1.98400002E-02     1.05319528E-24
  -1.98299997E-02     1.05279345E-24
  -1.98199991E-02     1.05232585E-24
  -1.98100004E-02     1.05178617E-24
  -1.97999999E-02     1.05116426E-24
  -1.97899994E-02     1.05044679E-24
  -1.97800007E-02     1.04961720E-24
  -1.97700001E-02     1.04865726E-24
  -1.97599996E-02     1.04754802E-24
  -1.97500009E-02     1.04627164E-24
  -1.97400004E-02     1.04481284E-24
  -1.97299998E-02     1.04316037E-24
  -1.97199993E-02     1.04130813E-24
  -1.97100006E-02     1.03925699E-24
  -1.97000001E-02     1.03701643E-24
  -1.96899995E-02     1.03460508E-24
  -1.96800008E-02     1.03205183E-24
  -1.96700003E-02     1.02939672E-24
  -1.96599998E-02     1.02668994E-24
  -1.96499992E-02     1.02399066E-24
  -1.96400005E-02     1.02136454E-24
  -1.96300000E-02     1.01888190E-24
  -1.96199995E-02     1.01661323E-24
  -1.96100008E-02     1.01462668E-24
  -1.96000002E-02     1.01298240E-24
  -1.95899997E-02     1.01172949E-24
  -1.95799991E-02     1.01090158E-24
  -1.95700005E-02     1.01051396E-24
  -1.95599999E-02     1.01056208E-24
  -1.95499994E-02     1.01102258E-24
  -1.95400007E-02     1.01185492E-24
  -1.95300002E-02     1.01300557E-24
  -1.95199996E-02     1.01441280E-24
  -1.95099991E-02     1.01601212E-24
  -1.95000004E-02     1.01774219E-24
  -1.94899999E-02     1.01954987E-24
  -1.94799993E-02     1.02139422E-24
  -1.94700006E-02     1.02324943E-24
  -1.94600001E-02     1.02510532E-24
  -1.94499996E-02     1.02696585E-24
  -1.94400009E-02     1.02884561E-24
  -1.94300003E-02     1.03076441E-24
  -1.94199998E-02     1.03274021E-24
  -1.94099993E-02     1.03478297E-24
  -1.94000006E-02     1.03688903E-24
  -1.93900000E-02     1.03903749E-24
  -1.93799995E-02     1.04118901E-24
  -1.93700008E-02     1.04328669E-24
  -1.93600003E-02     1.04525973E-24
  -1.93499997E-02     1.04702786E-24
  -1.93399992E-02     1.04850905E-24
  -1.93300005E-02     1.04962647E-24
  -1.93200000E-02     1.05031732E-24
  -1.93099994E-02     1.05054046E-24
  -1.93000007E-02     1.05028044E-24
  -1.92900002E-02     1.04955054E-24
  -1.92799997E-02     1.04839102E-24
  -1.92699991E-02     1.04686536E-24
  -1.92600004E-02     1.04505325E-24
  -1.92499999E-02     1.04304343E-24
  -1.92399994E-02     1.04092514E-24
  -1.92300007E-02     1.03878082E-24
  -1.92200001E-02     1.03667959E-24
  -1.92099996E-02     1.03467164E-24
  -1.92000009E-02     1.03278567E-24
  -1.91900004E-02     1.03102829E-24
  -1.91799998E-02     1.02938696E-24
  -1.91699993E-02     1.02783488E-24
  -1.91600006E-02     1.02633801E-24
  -1.91500001E-02     1.02486225E-24
  -1.91399995E-02     1.02337900E-24
  -1.91300008E-02     1.02187060E-24
  -1.91200003E-02     1.02033222E-24
  -1.91099998E-02     1.01877333E-24
  -1.90999992E-02     1.01721651E-24
  -1.90900005E-02     1.01569490E-24
  -1.90800000E-02     1.01424843E-24
  -1.90699995E-02     1.01291979E-24
  -1.90600008E-02     1.01174774E-24
  -1.90500002E-02     1.01076304E-24
  -1.90399997E-02     1.00998355E-24
  -1.90299992E-02     1.00941261E-24
  -1.90200005E-02     1.00903948E-24
  -1.90099999E-02     1.00884108E-24
  -1.89999994E-02     1.00878596E-24
  -1.89900007E-02     1.00883812E-24
  -1.89800002E-02     1.00896000E-24
  -1.89699996E-02     1.00911639E-24
  -1.89599991E-02     1.00927693E-24
  -1.89500004E-02     1.00941951E-24
  -1.89399999E-02     1.00953084E-24
  -1.89299993E-02     1.00960854E-24
  -1.89200006E-02     1.00965933E-24
  -1.89100001E-02     1.00969699E-24
  -1.88999996E-02     1.00973910E-24
  -1.88900009E-02     1.00980369E-24
  -1.88800003E-02     1.00990673E-24
  -1.88699998E-02     1.01006007E-24
  -1.88599993E-02     1.01027197E-24
  -1.88500006E-02     1.01054601E-24
  -1.88400000E-02     1.01088157E-24
  -1.88299995E-02     1.01127373E-24
  -1.88200008E-02     1.01171372E-24
  -1.88100003E-02     1.01218891E-24
  -1.87999997E-02     1.01268490E-24
  -1.87899992E-02     1.01318711E-24
  -1.87800005E-02     1.01368281E-24
  -1.87700000E-02     1.01416264E-24
  -1.87599994E-02     1.01462018E-24
  -1.87500007E-02     1.01505247E-24
  -1.87400002E-02     1.01545943E-24
  -1.87299997E-02     1.01584400E-24
  -1.87199991E-02     1.01621239E-24
  -1.87100004E-02     1.01657438E-24
  -1.86999999E-02     1.01694367E-24
  -1.86899994E-02     1.01733682E-24
  -1.86800007E-02     1.01777148E-24
  -1.86700001E-02     1.01826383E-24
  -1.86599996E-02     1.01882658E-24
  -1.86500009E-02     1.01946674E-24
  -1.86400004E-02     1.02018460E-24
  -1.86299998E-02     1.02097297E-24
  -1.86199993E-02     1.02181646E-24
  -1.86100006E-02     1.02269101E-24
  -1.86000001E-02     1.02356369E-24
  -1.85899995E-02     1.02439436E-24
  -1.85800008E-02     1.02513727E-24
  -1.85700003E-02     1.02574588E-24
  -1.85599998E-02     1.02617738E-24
  -1.85499992E-02     1.02639738E-24
  -1.85400005E-02     1.02638328E-24
  -1.85300000E-02     1.02612749E-24
  -1.85199995E-02     1.02563672E-24
  -1.85100008E-02     1.02493177E-24
  -1.85000002E-02     1.02404568E-24
  -1.84899997E-02     1.02302046E-24
  -1.84799992E-02     1.02190274E-24
  -1.84700005E-02     1.02073858E-24
  -1.84599999E-02     1.01956840E-24
  -1.84499994E-02     1.01842180E-24
  -1.84400007E-02     1.01731374E-24
  -1.84300002E-02     1.01624385E-24
  -1.84199996E-02     1.01519802E-24
  -1.84099991E-02     1.01415268E-24
  -1.84000004E-02     1.01308131E-24
  -1.83899999E-02     1.01196083E-24
  -1.83799993E-02     1.01077783E-24
  -1.83700006E-02     1.00953350E-24
  -1.83600001E-02     1.00824598E-24
  -1.83499996E-02     1.00695186E-24
  -1.83400009E-02     1.00570437E-24
  -1.83300003E-02     1.00456950E-24
  -1.83199998E-02     1.00361981E-24
  -1.83099993E-02     1.00292541E-24
  -1.83000006E-02     1.00254558E-24
  -1.82900000E-02     1.00251984E-24
  -1.82799995E-02     1.00286211E-24
  -1.82700008E-02     1.00355818E-24
  -1.82600003E-02     1.00456713E-24
  -1.82499997E-02     1.00582497E-24
  -1.82399992E-02     1.00725162E-24
  -1.82300005E-02     1.00875874E-24
  -1.82200000E-02     1.01025866E-24
  -1.82099994E-02     1.01167240E-24
  -1.82000007E-02     1.01293704E-24
  -1.81900002E-02     1.01400970E-24
  -1.81799997E-02     1.01487094E-24
  -1.81699991E-02     1.01552313E-24
  -1.81600004E-02     1.01598707E-24
  -1.81499999E-02     1.01629582E-24
  -1.81399994E-02     1.01648682E-24
  -1.81300007E-02     1.01659529E-24
  -1.81200001E-02     1.01664893E-24
  -1.81099996E-02     1.01666421E-24
  -1.81000009E-02     1.01664538E-24
  -1.80900004E-02     1.01658572E-24
  -1.80799998E-02     1.01646946E-24
  -1.80699993E-02     1.01627590E-24
  -1.80600006E-02     1.01598392E-24
  -1.80500001E-02     1.01557588E-24
  -1.80399995E-02     1.01504241E-24
  -1.80300009E-02     1.01438529E-24
  -1.80200003E-02     1.01361773E-24
  -1.80099998E-02     1.01276399E-24
  -1.79999992E-02     1.01185591E-24
  -1.79900005E-02     1.01092831E-24
  -1.79800000E-02     1.01001500E-24
  -1.79699995E-02     1.00914430E-24
  -1.79600008E-02     1.00833611E-24
  -1.79500002E-02     1.00760010E-24
  -1.79399997E-02     1.00693549E-24
  -1.79299992E-02     1.00633073E-24
  -1.79200005E-02     1.00576620E-24
  -1.79099999E-02     1.00521597E-24
  -1.78999994E-02     1.00465075E-24
  -1.78900007E-02     1.00404165E-24
  -1.78800002E-02     1.00336372E-24
  -1.78699996E-02     1.00259843E-24
  -1.78599991E-02     1.00173532E-24
  -1.78500004E-02     1.00077251E-24
  -1.78399999E-02     9.99715734E-25
  -1.78299993E-02     9.98577408E-25
  -1.78200006E-02     9.97374986E-25
  -1.78100001E-02     9.96129474E-25
  -1.77999996E-02     9.94864929E-25
  -1.77900009E-02     9.93607682E-25
  -1.77800003E-02     9.92384948E-25
  -1.77699998E-02     9.91224435E-25
  -1.77599993E-02     9.90152373E-25
  -1.77500006E-02     9.89193414E-25
  -1.77400000E-02     9.88369646E-25
  -1.77299995E-02     9.87700298E-25
  -1.77200008E-02     9.87201836E-25
  -1.77100003E-02     9.86887376E-25
  -1.76999997E-02     9.86765596E-25
  -1.76899992E-02     9.86840636E-25
  -1.76800005E-02     9.87110821E-25
  -1.76700000E-02     9.87568262E-25
  -1.76599994E-02     9.88199745E-25
  -1.76500008E-02     9.88987028E-25
  -1.76400002E-02     9.89909207E-25
  -1.76299997E-02     9.90943403E-25
  -1.76199991E-02     9.92065755E-25
  -1.76100004E-02     9.93252794E-25
  -1.75999999E-02     9.94481050E-25
  -1.75899994E-02     9.95727549E-25
  -1.75800007E-02     9.96970399E-25
  -1.75700001E-02     9.98187907E-25
  -1.75599996E-02     9.99359169E-25
  -1.75500009E-02     1.00046377E-24
  -1.75400004E-02     1.00148012E-24
  -1.75299998E-02     1.00238573E-24
  -1.75199993E-02     1.00315635E-24
  -1.75100006E-02     1.00376644E-24
  -1.75000001E-02     1.00419084E-24
  -1.74899995E-02     1.00440640E-24
  -1.74800009E-02     1.00439427E-24
  -1.74700003E-02     1.00414184E-24
  -1.74599998E-02     1.00364436E-24
  -1.74499992E-02     1.00290579E-24
  -1.74400005E-02     1.00194012E-24
  -1.74300000E-02     1.00077044E-24
  -1.74199995E-02     9.99429377E-25
  -1.74100008E-02     9.97957954E-25
  -1.74000002E-02     9.96402814E-25
  -1.73899997E-02     9.94813654E-25
  -1.73799992E-02     9.93239284E-25
  -1.73700005E-02     9.91723587E-25
  -1.73599999E-02     9.90302355E-25
  -1.73499994E-02     9.89000932E-25
  -1.73400007E-02     9.87833023E-25
  -1.73300002E-02     9.86800503E-25
  -1.73199996E-02     9.85894102E-25
  -1.73099991E-02     9.85096070E-25
  -1.73000004E-02     9.84380869E-25
  -1.72899999E-02     9.83719607E-25
  -1.72799993E-02     9.83082602E-25
  -1.72700007E-02     9.82443723E-25
  -1.72600001E-02     9.81783446E-25
  -1.72499996E-02     9.81091517E-25
  -1.72400009E-02     9.80367540E-25
  -1.72300003E-02     9.79620686E-25
  -1.72199998E-02     9.78866929E-25
  -1.72099993E-02     9.78126583E-25
  -1.72000006E-02     9.77420355E-25
  -1.71900000E-02     9.76766784E-25
  -1.71799995E-02     9.76179181E-25
  -1.71700008E-02     9.75663858E-25
  -1.71600003E-02     9.75219039E-25
  -1.71499997E-02     9.74833582E-25
  -1.71399992E-02     9.74488554E-25
  -1.71300005E-02     9.74159401E-25
  -1.71200000E-02     9.73819600E-25
  -1.71099994E-02     9.73444891E-25
  -1.71000008E-02     9.73017229E-25
  -1.70900002E-02     9.72528234E-25
  -1.70799997E-02     9.71980568E-25
  -1.70699991E-02     9.71387739E-25
  -1.70600004E-02     9.70772131E-25
  -1.70499999E-02     9.70162638E-25
  -1.70399994E-02     9.69591502E-25
  -1.70300007E-02     9.69089787E-25
  -1.70200001E-02     9.68684805E-25
  -1.70099996E-02     9.68395491E-25
  -1.70000009E-02     9.68230422E-25
  -1.69900004E-02     9.68186640E-25
  -1.69799998E-02     9.68249749E-25
  -1.69699993E-02     9.68396082E-25
  -1.69600006E-02     9.68596354E-25
  -1.69500001E-02     9.68819503E-25
  -1.69399995E-02     9.69037130E-25
  -1.69300009E-02     9.69226556E-25
  -1.69200003E-02     9.69372100E-25
  -1.69099998E-02     9.69465975E-25
  -1.68999992E-02     9.69507785E-25
  -1.68900006E-02     9.69502263E-25
  -1.68800000E-02     9.69458284E-25
  -1.68699995E-02     9.69385117E-25
  -1.68600008E-02     9.69290552E-25
  -1.68500002E-02     9.69178041E-25
  -1.68399997E-02     9.69045019E-25
  -1.68299992E-02     9.68882218E-25
  -1.68200005E-02     9.68674846E-25
  -1.68099999E-02     9.68404957E-25
  -1.67999994E-02     9.68055097E-25
  -1.67900007E-02     9.67612053E-25
  -1.67800002E-02     9.67069120E-25
  -1.67699996E-02     9.66427874E-25
  -1.67599991E-02     9.65698770E-25
  -1.67500004E-02     9.64900837E-25
  -1.67399999E-02     9.64060306E-25
  -1.67299993E-02     9.63209223E-25
  -1.67200007E-02     9.62382793E-25
  -1.67100001E-02     9.61617105E-25
  -1.66999996E-02     9.60945883E-25
  -1.66900009E-02     9.60396836E-25
  -1.66800003E-02     9.59990079E-25
  -1.66699998E-02     9.59736658E-25
  -1.66599993E-02     9.59639233E-25
  -1.66500006E-02     9.59693073E-25
  -1.66400000E-02     9.59887922E-25
  -1.66299995E-02     9.60209185E-25
  -1.66200008E-02     9.60638523E-25
  -1.66100003E-02     9.61153255E-25
  -1.65999997E-02     9.61726461E-25
  -1.65899992E-02     9.62326192E-25
  -1.65800005E-02     9.62916556E-25
  -1.65700000E-02     9.63458996E-25
  -1.65599994E-02     9.63912493E-25
  -1.65500008E-02     9.64235334E-25
  -1.65400002E-02     9.64385513E-25
  -1.65299997E-02     9.64322996E-25
  -1.65199991E-02     9.64011495E-25
  -1.65100005E-02     9.63422117E-25
  -1.64999999E-02     9.62536522E-25
  -1.64899994E-02     9.61349582E-25
  -1.64800007E-02     9.59871158E-25
  -1.64700001E-02     9.58125015E-25
  -1.64599996E-02     9.56147143E-25
  -1.64500009E-02     9.53981621E-25
  -1.64400004E-02     9.51676668E-25
  -1.64299998E-02     9.49281687E-25
  -1.64199993E-02     9.46843515E-25
  -1.64100006E-02     9.44404751E-25
  -1.64000001E-02     9.42000796E-25
  -1.63899995E-02     9.39658668E-25
  -1.63800009E-02     9.37396018E-25
  -1.63700003E-02     9.35222312E-25
  -1.63599998E-02     9.33140804E-25
  -1.63499992E-02     9.31153072E-25
  -1.63400006E-02     9.29261975E-25
  -1.63300000E-02     9.27474909E-25
  -1.63199995E-02     9.25804693E-25
  -1.63100008E-02     9.24268978E-25
  -1.63000003E-02     9.22888570E-25
  -1.62899997E-02     9.21685163E-25
  -1.62799992E-02     9.20679168E-25
  -1.62700005E-02     9.19888039E-25
  -1.62599999E-02     9.19324595E-25
  -1.62499994E-02     9.18995147E-25
  -1.62400007E-02     9.18898216E-25
  -1.62300002E-02     9.19023546E-25
  -1.62199996E-02     9.19351811E-25
  -1.62099991E-02     9.19857471E-25
  -1.62000004E-02     9.20510648E-25
  -1.61899999E-02     9.21281661E-25
  -1.61799993E-02     9.22142604E-25
  -1.61700007E-02     9.23069022E-25
  -1.61600001E-02     9.24038729E-25
  -1.61499996E-02     9.25031314E-25
  -1.61400009E-02     9.26026363E-25
  -1.61300004E-02     9.27003367E-25
  -1.61199998E-02     9.27941323E-25
  -1.61099993E-02     9.28819029E-25
  -1.61000006E-02     9.29615483E-25
  -1.60900000E-02     9.30309779E-25
  -1.60799995E-02     9.30881210E-25
  -1.60700008E-02     9.31311337E-25
  -1.60600003E-02     9.31586255E-25
  -1.60499997E-02     9.31699555E-25
  -1.60399992E-02     9.31655477E-25
  -1.60300005E-02     9.31470292E-25
  -1.60200000E-02     9.31171117E-25
  -1.60099994E-02     9.30792759E-25
  -1.60000008E-02     9.30373381E-25
  -1.59900002E-02     9.29950059E-25
  -1.59799997E-02     9.29555332E-25
  -1.59699991E-02     9.29213756E-25
  -1.59600005E-02     9.28940317E-25
  -1.59499999E-02     9.28738467E-25
  -1.59399994E-02     9.28598839E-25
  -1.59300007E-02     9.28499836E-25
  -1.59200002E-02     9.28410301E-25
  -1.59099996E-02     9.28294141E-25
  -1.59000009E-02     9.28116746E-25
  -1.58900004E-02     9.27851294E-25
  -1.58799998E-02     9.27483488E-25
  -1.58699993E-02     9.27013129E-25
  -1.58600006E-02     9.26454222E-25
  -1.58500001E-02     9.25832501E-25
  -1.58399995E-02     9.25181690E-25
  -1.58300009E-02     9.24540051E-25
  -1.58200003E-02     9.23945348E-25
  -1.58099998E-02     9.23430616E-25
  -1.57999992E-02     9.23018042E-25
  -1.57900006E-02     9.22715021E-25
  -1.57800000E-02     9.22510804E-25
  -1.57699995E-02     9.22375811E-25
  -1.57600008E-02     9.22265272E-25
  -1.57500003E-02     9.22124854E-25
  -1.57399997E-02     9.21898648E-25
  -1.57299992E-02     9.21537547E-25
  -1.57200005E-02     9.21005855E-25
  -1.57099999E-02     9.20286513E-25
  -1.56999994E-02     9.19383957E-25
  -1.56900007E-02     9.18325700E-25
  -1.56800002E-02     9.17162229E-25
  -1.56699996E-02     9.15962963E-25
  -1.56599991E-02     9.14810536E-25
  -1.56500004E-02     9.13791722E-25
  -1.56399999E-02     9.12985999E-25
  -1.56299993E-02     9.12456082E-25
  -1.56199997E-02     9.12237765E-25
  -1.56100001E-02     9.12336175E-25
  -1.55999996E-02     9.12723802E-25
  -1.55900000E-02     9.13344537E-25
  -1.55800004E-02     9.14118606E-25
  -1.55699998E-02     9.14951545E-25
  -1.55600002E-02     9.15743758E-25
  -1.55499997E-02     9.16400781E-25
  -1.55400001E-02     9.16843529E-25
  -1.55300004E-02     9.17017276E-25
  -1.55199999E-02     9.16897862E-25
  -1.55100003E-02     9.16493176E-25
  -1.54999997E-02     9.15841676E-25
  -1.54900001E-02     9.15005089E-25
  -1.54799996E-02     9.14058752E-25
  -1.54700000E-02     9.13080958E-25
  -1.54600004E-02     9.12143693E-25
  -1.54499998E-02     9.11303951E-25
  -1.54400002E-02     9.10599202E-25
  -1.54299997E-02     9.10044238E-25
  -1.54200001E-02     9.09631763E-25
  -1.54100005E-02     9.09335348E-25
  -1.53999999E-02     9.09115355E-25
  -1.53900003E-02     9.08926127E-25
  -1.53799998E-02     9.08725657E-25
  -1.53700002E-02     9.08482885E-25
  -1.53599996E-02     9.08183907E-25
  -1.53500000E-02     9.07834540E-25
  -1.53400004E-02     9.07459733E-25
  -1.53299998E-02     9.07098435E-25
  -1.53200002E-02     9.06798963E-25
  -1.53099997E-02     9.06611609E-25
  -1.53000001E-02     9.06582421E-25
  -1.52899995E-02     9.06746603E-25
  -1.52799999E-02     9.07124664E-25
  -1.52700003E-02     9.07718578E-25
  -1.52599998E-02     9.08511876E-25
  -1.52500002E-02     9.09471624E-25
  -1.52399996E-02     9.10553547E-25
  -1.52300000E-02     9.11708735E-25
  -1.52200004E-02     9.12890449E-25
  -1.52099999E-02     9.14060329E-25
  -1.52000003E-02     9.15193429E-25
  -1.51899997E-02     9.16279099E-25
  -1.51800001E-02     9.17320889E-25
  -1.51699996E-02     9.18334673E-25
  -1.51600000E-02     9.19344218E-25
  -1.51500003E-02     9.20376147E-25
  -1.51399998E-02     9.21454717E-25
  -1.51300002E-02     9.22596396E-25
  -1.51199996E-02     9.23804438E-25
  -1.51100000E-02     9.25067798E-25
  -1.51000004E-02     9.26359262E-25
  -1.50899999E-02     9.27638203E-25
  -1.50800003E-02     9.28855021E-25
  -1.50699997E-02     9.29956665E-25
  -1.50600001E-02     9.30892945E-25
  -1.50499996E-02     9.31622542E-25
  -1.50400000E-02     9.32117257E-25
  -1.50300004E-02     9.32365748E-25
  -1.50199998E-02     9.32374031E-25
  -1.50100002E-02     9.32165969E-25
  -1.49999997E-02     9.31780019E-25
  -1.49900001E-02     9.31265484E-25
  -1.49800004E-02     9.30676994E-25
  -1.49699999E-02     9.30067895E-25
  -1.49600003E-02     9.29484631E-25
  -1.49499997E-02     9.28961715E-25
  -1.49400001E-02     9.28519164E-25
  -1.49299996E-02     9.28161218E-25
  -1.49200000E-02     9.27877918E-25
  -1.49100004E-02     9.27647669E-25
  -1.48999998E-02     9.27441087E-25
  -1.48900002E-02     9.27226221E-25
  -1.48799997E-02     9.26973588E-25
  -1.48700001E-02     9.26660509E-25
  -1.48600005E-02     9.26275939E-25
  -1.48499999E-02     9.25821555E-25
  -1.48400003E-02     9.25313627E-25
  -1.48299998E-02     9.24780555E-25
  -1.48200002E-02     9.24260991E-25
  -1.48099996E-02     9.23799310E-25
  -1.48000000E-02     9.23441562E-25
  -1.47900004E-02     9.23229753E-25
  -1.47799999E-02     9.23199086E-25
  -1.47700002E-02     9.23372931E-25
  -1.47599997E-02     9.23761741E-25
  -1.47500001E-02     9.24361571E-25
  -1.47399995E-02     9.25154376E-25
  -1.47299999E-02     9.26110278E-25
  -1.47200003E-02     9.27190525E-25
  -1.47099998E-02     9.28351038E-25
  -1.47000002E-02     9.29546852E-25
  -1.46899996E-02     9.30736257E-25
  -1.46800000E-02     9.31884247E-25
  -1.46700004E-02     9.32965381E-25
  -1.46599999E-02     9.33966741E-25
  -1.46500003E-02     9.34887933E-25
  -1.46399997E-02     9.35741777E-25
  -1.46300001E-02     9.36552233E-25
  -1.46199996E-02     9.37351250E-25
  -1.46100000E-02     9.38175314E-25
  -1.46000003E-02     9.39060219E-25
  -1.45899998E-02     9.40037519E-25
  -1.45800002E-02     9.41129894E-25
  -1.45699997E-02     9.42347895E-25
  -1.45600000E-02     9.43687775E-25
  -1.45500004E-02     9.45130602E-25
  -1.45399999E-02     9.46642750E-25
  -1.45300003E-02     9.48178366E-25
  -1.45199997E-02     9.49683217E-25
  -1.45100001E-02     9.51099715E-25
  -1.44999996E-02     9.52372444E-25
  -1.44900000E-02     9.53453972E-25
  -1.44800004E-02     9.54309393E-25
  -1.44699998E-02     9.54920465E-25
  -1.44600002E-02     9.55287088E-25
  -1.44499997E-02     9.55427406E-25
  -1.44400001E-02     9.55376623E-25
  -1.44300004E-02     9.55183254E-25
  -1.44199999E-02     9.54905082E-25
  -1.44100003E-02     9.54604230E-25
  -1.43999998E-02     9.54340257E-25
  -1.43900001E-02     9.54165327E-25
  -1.43799996E-02     9.54118686E-25
  -1.43700000E-02     9.54223407E-25
  -1.43600004E-02     9.54485506E-25
  -1.43499998E-02     9.54893545E-25
  -1.43400002E-02     9.55421687E-25
  -1.43299997E-02     9.56032660E-25
  -1.43200001E-02     9.56682484E-25
  -1.43100005E-02     9.57325504E-25
  -1.42999999E-02     9.57920108E-25
  -1.42900003E-02     9.58433164E-25
  -1.42799998E-02     9.58845245E-25
  -1.42700002E-02     9.59152506E-25
  -1.42599996E-02     9.59368457E-25
  -1.42500000E-02     9.59521989E-25
  -1.42400004E-02     9.59655010E-25
  -1.42299999E-02     9.59816530E-25
  -1.42200002E-02     9.60057625E-25
  -1.42099997E-02     9.60425432E-25
  -1.42000001E-02     9.60957321E-25
  -1.41899996E-02     9.61676467E-25
  -1.41799999E-02     9.62587699E-25
  -1.41700003E-02     9.63675341E-25
  -1.41599998E-02     9.64903894E-25
  -1.41500002E-02     9.66220010E-25
  -1.41399996E-02     9.67556932E-25
  -1.41300000E-02     9.68841197E-25
  -1.41200004E-02     9.70000231E-25
  -1.41099999E-02     9.70969051E-25
  -1.41000003E-02     9.71696972E-25
  -1.40899997E-02     9.72152244E-25
  -1.40800001E-02     9.72324117E-25
  -1.40699996E-02     9.72223241E-25
  -1.40600000E-02     9.71880185E-25
  -1.40500003E-02     9.71341295E-25
  -1.40399998E-02     9.70663071E-25
  -1.40300002E-02     9.69906554E-25
  -1.40199997E-02     9.69130019E-25
  -1.40100000E-02     9.68383165E-25
  -1.40000004E-02     9.67701885E-25
  -1.39899999E-02     9.67105900E-25
  -1.39800003E-02     9.66598071E-25
  -1.39699997E-02     9.66166959E-25
  -1.39600001E-02     9.65790080E-25
  -1.39499996E-02     9.65438840E-25
  -1.39400000E-02     9.65082867E-25
  -1.39300004E-02     9.64695240E-25
  -1.39199998E-02     9.64255647E-25
  -1.39100002E-02     9.63754622E-25