  -2.19999999E-02     1.00000002E-24
  -2.19899993E-02     9.99999231E-25
  -2.19800007E-02     9.99997554E-25
  -2.19700001E-02     9.99995089E-25
  -2.19599996E-02     9.99992032E-25
  -2.19500009E-02     9.99988384E-25
  -2.19400004E-02     9.99984341E-25
  -2.19299998E-02     9.99980199E-25
  -2.19199993E-02     9.99976058E-25
  -2.19100006E-02     9.99972015E-25
  -2.19000001E-02     9.99968268E-25
  -2.18899995E-02     9.99964915E-25
  -2.18800008E-02     9.99962154E-25
  -2.18700003E-02     9.99959886E-25
  -2.18599997E-02     9.99958210E-25
  -2.18499992E-02     9.99957027E-25
  -2.18400005E-02     9.99956336E-25
  -2.18300000E-02     9.99956041E-25
  -2.18199994E-02     9.99956041E-25
  -2.18100008E-02     9.99956238E-25
  -2.18000002E-02     9.99956336E-25
  -2.17899997E-02     9.99956238E-25
  -2.17799991E-02     9.99955843E-25
  -2.17700005E-02     9.99955054E-25
  -2.17599999E-02     9.99953674E-25
  -2.17499994E-02     9.99951800E-25
  -2.17400007E-02     9.99949237E-25
  -2.17300002E-02     9.99946081E-25
  -2.17199996E-02     9.99942235E-25
  -2.17099991E-02     9.99937897E-25
  -2.17000004E-02     9.99933164E-25
  -2.16899998E-02     9.99928135E-25
  -2.16799993E-02     9.99922908E-25
  -2.16700006E-02     9.99917682E-25
  -2.16600001E-02     9.99912653E-25
  -2.16499995E-02     9.99908019E-25
  -2.16400009E-02     9.99903779E-25
  -2.16300003E-02     9.99900130E-25
  -2.16199998E-02     9.99897172E-25
  -2.16099992E-02     9.99895002E-25
  -2.16000006E-02     9.99893523E-25
  -2.15900000E-02     9.99892734E-25
  -2.15799995E-02     9.99892537E-25
  -2.15700008E-02     9.99892932E-25
  -2.15600003E-02     9.99893721E-25
  -2.15499997E-02     9.99894707E-25
  -2.15399992E-02     9.99895693E-25
  -2.15300005E-02     9.99896679E-25
  -2.15200000E-02     9.99897468E-25
  -2.15099994E-02     9.99897862E-25
  -2.15000007E-02     9.99897862E-25
  -2.14900002E-02     9.99897172E-25
  -2.14799996E-02     9.99895890E-25
  -2.14699991E-02     9.99893918E-25
  -2.14600004E-02     9.99891354E-25
  -2.14499999E-02     9.99888199E-25
  -2.14399993E-02     9.99884649E-25
  -2.14300007E-02     9.99880606E-25
  -2.14200001E-02     9.99876366E-25
  -2.14099996E-02     9.99872125E-25
  -2.14000009E-02     9.99867984E-25
  -2.13900004E-02     9.99864040E-25
  -2.13799998E-02     9.99860490E-25
  -2.13699993E-02     9.99857532E-25
  -2.13600006E-02     9.99855165E-25
  -2.13500001E-02     9.99853390E-25
  -2.13399995E-02     9.99852305E-25
  -2.13300008E-02     9.99851911E-25
  -2.13200003E-02     9.99852108E-25
  -2.13099997E-02     9.99852700E-25
  -2.12999992E-02     9.99853784E-25
  -2.12900005E-02     9.99855066E-25
  -2.12800000E-02     9.99856348E-25
  -2.12699994E-02     9.99857630E-25
  -2.12600008E-02     9.99858715E-25
  -2.12500002E-02     9.99859405E-25
  -2.12399997E-02     9.99859701E-25
  -2.12299991E-02     9.99859405E-25
  -2.12200005E-02     9.99858518E-25
  -2.12099999E-02     9.99856940E-25
  -2.11999994E-02     9.99854771E-25
  -2.11900007E-02     9.99852010E-25
  -2.11800002E-02     9.99848854E-25
  -2.11699996E-02     9.99845304E-25
  -2.11599991E-02     9.99841557E-25
  -2.11500004E-02     9.99837810E-25
  -2.11399999E-02     9.99834260E-25
  -2.11299993E-02     9.99830907E-25
  -2.11200006E-02     9.99827949E-25
  -2.11100001E-02     9.99825583E-25
  -2.10999995E-02     9.99823808E-25
  -2.10900009E-02     9.99822723E-25
  -2.10800003E-02     9.99822427E-25
  -2.10699998E-02     9.99822723E-25
  -2.10599992E-02     9.99823611E-25
  -2.10500006E-02     9.99825090E-25
  -2.10400000E-02     9.99826963E-25
  -2.10299995E-02     9.99829231E-25
  -2.10200008E-02     9.99831598E-25
  -2.10100003E-02     9.99833964E-25
  -2.09999997E-02     9.99836134E-25
  -2.09899992E-02     9.99837909E-25
  -2.09800005E-02     9.99839289E-25
  -2.09700000E-02     9.99840078E-25
  -2.09599994E-02     9.99840374E-25
  -2.09500007E-02     9.99839979E-25
  -2.09400002E-02     9.99838993E-25
  -2.09299996E-02     9.99837416E-25
  -2.09199991E-02     9.99835345E-25
  -2.09100004E-02     9.99832880E-25
  -2.08999999E-02     9.99830217E-25
  -2.08899993E-02     9.99827456E-25
  -2.08800007E-02     9.99824695E-25
  -2.08700001E-02     9.99822131E-25
  -2.08599996E-02     9.99819962E-25
  -2.08500009E-02     9.99818384E-25
  -2.08400004E-02     9.99817300E-25
  -2.08299998E-02     9.99816905E-25
  -2.08199993E-02     9.99817300E-25
  -2.08100006E-02     9.99818286E-25
  -2.08000001E-02     9.99819863E-25
  -2.07899995E-02     9.99822033E-25
  -2.07800008E-02     9.99824597E-25
  -2.07700003E-02     9.99827456E-25
  -2.07599998E-02     9.99830513E-25
  -2.07499992E-02     9.99833471E-25
  -2.07400005E-02     9.99836232E-25
  -2.07300000E-02     9.99838697E-25
  -2.07199994E-02     9.99840768E-25
  -2.07100008E-02     9.99842247E-25
  -2.07000002E-02     9.99843135E-25
  -2.06899997E-02     9.99843431E-25
  -2.06799991E-02     9.99843036E-25
  -2.06700005E-02     9.99842050E-25
  -2.06599999E-02     9.99840670E-25
  -2.06499994E-02     9.99838895E-25
  -2.06400007E-02     9.99836824E-25
  -2.06300002E-02     9.99834753E-25
  -2.06199996E-02     9.99832682E-25
  -2.06099991E-02     9.99830809E-25
  -2.06000004E-02     9.99829330E-25
  -2.05899999E-02     9.99828442E-25
  -2.05799993E-02     9.99828048E-25
  -2.05700006E-02     9.99828344E-25
  -2.05600001E-02     9.99829428E-25
  -2.05499995E-02     9.99831203E-25
  -2.05400009E-02     9.99833570E-25
  -2.05300003E-02     9.99836528E-25
  -2.05199998E-02     9.99839881E-25
  -2.05099992E-02     9.99843628E-25
  -2.05000006E-02     9.99847572E-25
  -2.04900000E-02     9.99851516E-25
  -2.04799995E-02     9.99855264E-25
  -2.04700008E-02     9.99858715E-25
  -2.04600003E-02     9.99861772E-25
  -2.04499997E-02     9.99864237E-25
  -2.04399992E-02     9.99866110E-25
  -2.04300005E-02     9.99867392E-25
  -2.04200000E-02     9.99867984E-25
  -2.04099994E-02     9.99867984E-25
  -2.04000007E-02     9.99867392E-25
  -2.03900002E-02     9.99866406E-25
  -2.03799997E-02     9.99865026E-25
  -2.03699991E-02     9.99863448E-25
  -2.03600004E-02     9.99861870E-25
  -2.03499999E-02     9.99860391E-25
  -2.03399993E-02     9.99859109E-25
  -2.03300007E-02     9.99858222E-25
  -2.03200001E-02     9.99857926E-25
  -2.03099996E-02     9.99858222E-25
  -2.03000009E-02     9.99859109E-25
  -2.02900004E-02     9.99860687E-25
  -2.02799998E-02     9.99862856E-25
  -2.02699993E-02     9.99865716E-25
  -2.02600006E-02     9.99868970E-25
  -2.02500001E-02     9.99872619E-25
  -2.02399995E-02     9.99876464E-25
  -2.02300008E-02     9.99880310E-25
  -2.02200003E-02     9.99884057E-25
  -2.02099998E-02     9.99887607E-25
  -2.01999992E-02     9.99890762E-25
  -2.01900005E-02     9.99893326E-25
  -2.01800000E-02     9.99895298E-25
  -2.01699995E-02     9.99896679E-25
  -2.01600008E-02     9.99897468E-25
  -2.01500002E-02     9.99897566E-25
  -2.01399997E-02     9.99897073E-25
  -2.01299991E-02     9.99896186E-25
  -2.01200005E-02     9.99894904E-25
  -2.01099999E-02     9.99893523E-25
  -2.00999994E-02     9.99892143E-25
  -2.00900007E-02     9.99890960E-25
  -2.00800002E-02     9.99890072E-25
  -2.00699996E-02     9.99889579E-25
  -2.00599991E-02     9.99889776E-25
  -2.00500004E-02     9.99890664E-25
  -2.00399999E-02     9.99892241E-25
  -2.00299993E-02     9.99894608E-25
  -2.00200006E-02     9.99897763E-25
  -2.00100001E-02     9.99901511E-25
  -1.99999996E-02     9.99905849E-25
  -1.99900009E-02     9.99910681E-25
  -1.99800003E-02     9.99915907E-25
  -1.99699998E-02     9.99921232E-25
  -1.99599992E-02     9.99926557E-25
  -1.99500006E-02     9.99931586E-25
  -1.99400000E-02     9.99936319E-25
  -1.99299995E-02     9.99940461E-25
  -1.99200008E-02     9.99944109E-25
  -1.99100003E-02     9.99947067E-25
  -1.98999997E-02     9.99949237E-25
  -1.98899992E-02     9.99950716E-25
  -1.98800005E-02     9.99951603E-25
  -1.98700000E-02     9.99951800E-25
  -1.98599994E-02     9.99951603E-25
  -1.98500007E-02     9.99951012E-25
  -1.98400002E-02     9.99950223E-25
  -1.98299997E-02     9.99949434E-25
  -1.98199991E-02     9.99948744E-25
  -1.98100004E-02     9.99948251E-25
  -1.97999999E-02     9.99948152E-25
  -1.97899994E-02     9.99948448E-25
  -1.97800007E-02     9.99949335E-25
  -1.97700001E-02     9.99950716E-25
  -1.97599996E-02     9.99952688E-25
  -1.97500009E-02     9.99955054E-25
  -1.97400004E-02     9.99957815E-25
  -1.97299998E-02     9.99960971E-25
  -1.97199993E-02     9.99964225E-25
  -1.97100006E-02     9.99967479E-25
  -1.97000001E-02     9.99970634E-25
  -1.96899995E-02     9.99973593E-25
  -1.96800008E-02     9.99976058E-25
  -1.96700003E-02     9.99977931E-25
  -1.96599998E-02     9.99979213E-25
  -1.96499992E-02     9.99979904E-25
  -1.96400005E-02     9.99979805E-25
  -1.96300000E-02     9.99979115E-25
  -1.96199995E-02     9.99977734E-25
  -1.96100008E-02     9.99975762E-25
  -1.96000002E-02     9.99973395E-25
  -1.95899997E-02     9.99970832E-25
  -1.95799991E-02     9.99968071E-25
  -1.95700005E-02     9.99965310E-25
  -1.95599999E-02     9.99962746E-25
  -1.95499994E-02     9.99960576E-25
  -1.95400007E-02     9.99958900E-25
  -1.95300002E-02     9.99957815E-25
  -1.95199996E-02     9.99957421E-25
  -1.95099991E-02     9.99957815E-25
  -1.95000004E-02     9.99958900E-25
  -1.94899999E-02     9.99960675E-25
  -1.94799993E-02     9.99963042E-25
  -1.94700006E-02     9.99966000E-25
  -1.94600001E-02     9.99969254E-25
  -1.94499996E-02     9.99972804E-25
  -1.94400009E-02     9.99976354E-25
  -1.94300003E-02     9.99979904E-25
  -1.94199998E-02     9.99983256E-25
  -1.94099993E-02     9.99986214E-25
  -1.94000006E-02     9.99988778E-25
  -1.93900000E-02     9.99990750E-25
  -1.93799995E-02     9.99992131E-25
  -1.93700008E-02     9.99992920E-25
  -1.93600003E-02     9.99993117E-25
  -1.93499997E-02     9.99992821E-25
  -1.93399992E-02     9.99992131E-25
  -1.93300005E-02     9.99991243E-25
  -1.93200000E-02     9.99990060E-25
  -1.93099994E-02     9.99988877E-25
  -1.93000007E-02     9.99987891E-25
  -1.92900002E-02     9.99987102E-25
  -1.92799997E-02     9.99986708E-25
  -1.92699991E-02     9.99986806E-25
  -1.92600004E-02     9.99987496E-25
  -1.92499999E-02     9.99988778E-25
  -1.92399994E-02     9.99990652E-25
  -1.92300007E-02     9.99993117E-25
  -1.92200001E-02     9.99995977E-25
  -1.92099996E-02     9.99999231E-25
  -1.92000009E-02     1.00000278E-24
  -1.91900004E-02     1.00000653E-24
  -1.91799998E-02     1.00001018E-24
  -1.91699993E-02     1.00001363E-24
  -1.91600006E-02     1.00001668E-24
  -1.91500001E-02     1.00001935E-24
  -1.91399995E-02     1.00002132E-24
  -1.91300008E-02     1.00002270E-24
  -1.91200003E-02     1.00002329E-24
  -1.91099998E-02     1.00002309E-24
  -1.90999992E-02     1.00002221E-24
  -1.90900005E-02     1.00002073E-24
  -1.90800000E-02     1.00001866E-24
  -1.90699995E-02     1.00001619E-24
  -1.90600008E-02     1.00001343E-24
  -1.90500002E-02     1.00001047E-24
  -1.90399997E-02     1.00000761E-24
  -1.90299992E-02     1.00000495E-24
  -1.90200005E-02     1.00000258E-24
  -1.90099999E-02     1.00000061E-24
  -1.89999994E-02     9.99999231E-25
  -1.89900007E-02     9.99998343E-25
  -1.89800002E-02     9.99998047E-25
  -1.89699996E-02     9.99998245E-25
  -1.89599991E-02     9.99998836E-25
  -1.89500004E-02     9.99999921E-25
  -1.89399999E-02     1.00000120E-24
  -1.89299993E-02     1.00000268E-24
  -1.89200006E-02     1.00000416E-24
  -1.89100001E-02     1.00000544E-24
  -1.88999996E-02     1.00000643E-24
  -1.88900009E-02     1.00000702E-24
  -1.88800003E-02     1.00000702E-24
  -1.88699998E-02     1.00000643E-24
  -1.88599993E-02     1.00000525E-24
  -1.88500006E-02     1.00000337E-24
  -1.88400000E-02     1.00000081E-24
  -1.88299995E-02     9.99997653E-25
  -1.88200008E-02     9.99994103E-25
  -1.88100003E-02     9.99990159E-25
  -1.87999997E-02     9.99986116E-25
  -1.87899992E-02     9.99982073E-25
  -1.87800005E-02     9.99978227E-25
  -1.87700000E-02     9.99974579E-25
  -1.87599994E-02     9.99971325E-25
  -1.87500007E-02     9.99968662E-25
  -1.87400002E-02     9.99966592E-25
  -1.87299997E-02     9.99965211E-25
  -1.87199991E-02     9.99964422E-25
  -1.87100004E-02     9.99964324E-25
  -1.86999999E-02     9.99964817E-25
  -1.86899994E-02     9.99965803E-25
  -1.86800007E-02     9.99967183E-25
  -1.86700001E-02     9.99968662E-25
  -1.86599996E-02     9.99970240E-25
  -1.86500009E-02     9.99971621E-25
  -1.86400004E-02     9.99972804E-25
  -1.86299998E-02     9.99973593E-25
  -1.86199993E-02     9.99973790E-25
  -1.86100006E-02     9.99973395E-25
  -1.86000001E-02     9.99972212E-25
  -1.85899995E-02     9.99970339E-25
  -1.85800008E-02     9.99967873E-25
  -1.85700003E-02     9.99964718E-25
  -1.85599998E-02     9.99960971E-25
  -1.85499992E-02     9.99956928E-25
  -1.85400005E-02     9.99952589E-25
  -1.85300000E-02     9.99948053E-25
  -1.85199995E-02     9.99943616E-25
  -1.85100008E-02     9.99939474E-25
  -1.85000002E-02     9.99935727E-25
  -1.84899997E-02     9.99932375E-25
  -1.84799992E-02     9.99929614E-25
  -1.84700005E-02     9.99927444E-25
  -1.84599999E-02     9.99925965E-25
  -1.84499994E-02     9.99925176E-25
  -1.84400007E-02     9.99924979E-25
  -1.84300002E-02     9.99925374E-25
  -1.84199996E-02     9.99926162E-25
  -1.84099991E-02     9.99927149E-25
  -1.84000004E-02     9.99928332E-25
  -1.83899999E-02     9.99929416E-25
  -1.83799993E-02     9.99930304E-25
  -1.83700006E-02     9.99930797E-25
  -1.83600001E-02     9.99930896E-25
  -1.83499996E-02     9.99930501E-25
  -1.83400009E-02     9.99929515E-25
  -1.83300003E-02     9.99927937E-25
  -1.83199998E-02     9.99925768E-25
  -1.83099993E-02     9.99923007E-25
  -1.83000006E-02     9.99919852E-25
  -1.82900000E-02     9.99916302E-25
  -1.82799995E-02     9.99912653E-25
  -1.82700008E-02     9.99909005E-25
  -1.82600003E-02     9.99905455E-25
  -1.82499997E-02     9.99902102E-25
  -1.82399992E-02     9.99899243E-25
  -1.82300005E-02     9.99896876E-25
  -1.82200000E-02     9.99895101E-25
  -1.82099994E-02     9.99894016E-25
  -1.82000007E-02     9.99893721E-25
  -1.81900002E-02     9.99894016E-25
  -1.81799997E-02     9.99894904E-25
  -1.81699991E-02     9.99896383E-25
  -1.81600004E-02     9.99898256E-25
  -1.81499999E-02     9.99900327E-25
  -1.81399994E-02     9.99902595E-25
  -1.81300007E-02     9.99904765E-25
  -1.81200001E-02     9.99906737E-25
  -1.81099996E-02     9.99908314E-25
  -1.81000009E-02     9.99909498E-25
  -1.80900004E-02     9.99910089E-25
  -1.80799998E-02     9.99909991E-25
  -1.80699993E-02     9.99909301E-25
  -1.80600006E-02     9.99907920E-25
  -1.80500001E-02     9.99905948E-25
  -1.80399995E-02     9.99903384E-25
  -1.80300009E-02     9.99900426E-25
  -1.80200003E-02     9.99897270E-25
  -1.80099998E-02     9.99894016E-25
  -1.79999992E-02     9.99890762E-25
  -1.79900005E-02     9.99887804E-25
  -1.79800000E-02     9.99885339E-25
  -1.79699995E-02     9.99883465E-25
  -1.79600008E-02     9.99882183E-25
  -1.79500002E-02     9.99881690E-25
  -1.79399997E-02     9.99881986E-25
  -1.79299992E-02     9.99883071E-25
  -1.79200005E-02     9.99884846E-25
  -1.79099999E-02     9.99887212E-25
  -1.78999994E-02     9.99890171E-25
  -1.78900007E-02     9.99893523E-25
  -1.78800002E-02     9.99897172E-25
  -1.78699996E-02     9.99901017E-25
  -1.78599991E-02     9.99904765E-25
  -1.78500004E-02     9.99908216E-25
  -1.78399999E-02     9.99911273E-25
  -1.78299993E-02     9.99913935E-25
  -1.78200006E-02     9.99916006E-25
  -1.78100001E-02     9.99917485E-25
  -1.77999996E-02     9.99918471E-25
  -1.77900009E-02     9.99918865E-25
  -1.77800003E-02     9.99918865E-25
  -1.77699998E-02     9.99918471E-25
  -1.77599993E-02     9.99917879E-25
  -1.77500006E-02     9.99917288E-25
  -1.77400000E-02     9.99916598E-25
  -1.77299995E-02     9.99916203E-25
  -1.77200008E-02     9.99916203E-25
  -1.77100003E-02     9.99916598E-25
  -1.76999997E-02     9.99917584E-25
  -1.76899992E-02     9.99919161E-25
  -1.76800005E-02     9.99921331E-25
  -1.76700000E-02     9.99924190E-25
  -1.76599994E-02     9.99927642E-25
  -1.76500008E-02     9.99931684E-25
  -1.76400002E-02     9.99936023E-25
  -1.76299997E-02     9.99940658E-25
  -1.76199991E-02     9.99945292E-25
  -1.76100004E-02     9.99949927E-25
  -1.75999999E-02     9.99954364E-25
  -1.75899994E-02     9.99958407E-25
  -1.75800007E-02     9.99961858E-25
  -1.75700001E-02     9.99964817E-25
  -1.75599996E-02     9.99966986E-25
  -1.75500009E-02     9.99968465E-25
  -1.75400004E-02     9.99969155E-25
  -1.75299998E-02     9.99969155E-25
  -1.75199993E-02     9.99968564E-25
  -1.75100006E-02     9.99967380E-25
  -1.75000001E-02     9.99965803E-25
  -1.74899995E-02     9.99964028E-25
  -1.74800009E-02     9.99962056E-25
  -1.74700003E-02     9.99960182E-25
  -1.74599998E-02     9.99958506E-25
  -1.74499992E-02     9.99957224E-25
  -1.74400005E-02     9.99956336E-25
  -1.74300000E-02     9.99956041E-25
  -1.74199995E-02     9.99956238E-25
  -1.74100008E-02     9.99957027E-25
  -1.74000002E-02     9.99958309E-25
  -1.73899997E-02     9.99959985E-25
  -1.73799992E-02     9.99962056E-25
  -1.73700005E-02     9.99964324E-25
  -1.73599999E-02     9.99966789E-25
  -1.73499994E-02     9.99969254E-25
  -1.73400007E-02     9.99971522E-25
  -1.73300002E-02     9.99973395E-25
  -1.73199996E-02     9.99974875E-25
  -1.73099991E-02     9.99975861E-25
  -1.73000004E-02     9.99976255E-25
  -1.72899999E-02     9.99976058E-25
  -1.72799993E-02     9.99975269E-25
  -1.72700007E-02     9.99973889E-25
  -1.72600001E-02     9.99972114E-25
  -1.72499996E-02     9.99969944E-25
  -1.72400009E-02     9.99967676E-25
  -1.72300003E-02     9.99965310E-25
  -1.72199998E-02     9.99963140E-25
  -1.72099993E-02     9.99961168E-25
  -1.72000006E-02     9.99959590E-25
  -1.71900000E-02     9.99958604E-25
  -1.71799995E-02     9.99958210E-25
  -1.71700008E-02     9.99958604E-25
  -1.71600003E-02     9.99959788E-25
  -1.71499997E-02     9.99961661E-25
  -1.71399992E-02     9.99964225E-25
  -1.71300005E-02     9.99967380E-25
  -1.71200000E-02     9.99971029E-25
  -1.71099994E-02     9.99975072E-25
  -1.71000008E-02     9.99979213E-25
  -1.70900002E-02     9.99983355E-25
  -1.70799997E-02     9.99987299E-25
  -1.70699991E-02     9.99990849E-25
  -1.70600004E-02     9.99993906E-25
  -1.70499999E-02     9.99996371E-25
  -1.70399994E-02     9.99998146E-25
  -1.70300007E-02     9.99999132E-25
  -1.70200001E-02     9.99999428E-25
  -1.70099996E-02     9.99998935E-25
  -1.70000009E-02     9.99997850E-25
  -1.69900004E-02     9.99996174E-25
  -1.69799998E-02     9.99994103E-25
  -1.69699993E-02     9.99991737E-25
  -1.69600006E-02     9.99989370E-25
  -1.69500001E-02     9.99987102E-25
  -1.69399995E-02     9.99985031E-25
  -1.69300009E-02     9.99983355E-25
  -1.69200003E-02     9.99982369E-25
  -1.69099998E-02     9.99982172E-25
  -1.68999992E-02     9.99982665E-25
  -1.68900006E-02     9.99984045E-25
  -1.68800000E-02     9.99986412E-25
  -1.68699995E-02     9.99989567E-25
  -1.68600008E-02     9.99993511E-25
  -1.68500002E-02     9.99998245E-25
  -1.68399997E-02     1.00000357E-24
  -1.68299992E-02     1.00000929E-24
  -1.68200005E-02     1.00001550E-24
  -1.68099999E-02     1.00002181E-24
  -1.67999994E-02     1.00002812E-24
  -1.67900007E-02     1.00003433E-24
  -1.67800002E-02     1.00004035E-24
  -1.67699996E-02     1.00004607E-24
  -1.67599991E-02     1.00005139E-24
  -1.67500004E-02     1.00005613E-24
  -1.67399999E-02     1.00006027E-24
  -1.67299993E-02     1.00006382E-24
  -1.67200007E-02     1.00006668E-24
  -1.67100001E-02     1.00006875E-24
  -1.66999996E-02     1.00007003E-24
  -1.66900009E-02     1.00007052E-24
  -1.66800003E-02     1.00007003E-24
  -1.66699998E-02     1.00006855E-24
  -1.66599993E-02     1.00006589E-24
  -1.66500006E-02     1.00006185E-24
  -1.66400000E-02     1.00005632E-24
  -1.66299995E-02     1.00004903E-24
  -1.66200008E-02     1.00003966E-24
  -1.66100003E-02     1.00002802E-24
  -1.65999997E-02     1.00001382E-24
  -1.65899992E-02     9.99996765E-25
  -1.65800005E-02     9.99976650E-25
  -1.65700000E-02     9.99953181E-25
  -1.65599994E-02     9.99926261E-25
  -1.65500008E-02     9.99895890E-25
  -1.65400002E-02     9.99862067E-25
  -1.65299997E-02     9.99824892E-25
  -1.65199991E-02     9.99784562E-25
  -1.65100005E-02     9.99741470E-25
  -1.64999999E-02     9.99696012E-25
  -1.64899994E-02     9.99648878E-25
  -1.64800007E-02     9.99600757E-25
  -1.64700001E-02     9.99552440E-25
  -1.64599996E-02     9.99504911E-25
  -1.64500009E-02     9.99459058E-25
  -1.64400004E-02     9.99416065E-25
  -1.64299998E-02     9.99377017E-25
  -1.64199993E-02     9.99343194E-25
  -1.64100006E-02     9.99315781E-25
  -1.64000001E-02     9.99295863E-25
  -1.63899995E-02     9.99284621E-25
  -1.63800009E-02     9.99283044E-25
  -1.63700003E-02     9.99292313E-25
  -1.63599998E-02     9.99313119E-25
  -1.63499992E-02     9.99346251E-25
  -1.63400006E-02     9.99392399E-25
  -1.63300000E-02     9.99451958E-25
  -1.63199995E-02     9.99525421E-25
  -1.63100008E-02     9.99612787E-25
  -1.63000003E-02     9.99714057E-25
  -1.62899997E-02     9.99829034E-25
  -1.62799992E-02     9.99957322E-25
  -1.62700005E-02     1.00009843E-24
  -1.62599999E-02     1.00025167E-24
  -1.62499994E-02     1.00041605E-24
  -1.62400007E-02     1.00059038E-24
  -1.62300002E-02     1.00077350E-24
  -1.62199996E-02     1.00096391E-24
  -1.62099991E-02     1.00116004E-24
  -1.62000004E-02     1.00135992E-24
  -1.61899999E-02     1.00156157E-24
  -1.61799993E-02     1.00176293E-24
  -1.61700007E-02     1.00196152E-24
  -1.61600001E-02     1.00215499E-24
  -1.61499996E-02     1.00234047E-24
  -1.61400009E-02     1.00251560E-24
  -1.61300004E-02     1.00267731E-24
  -1.61199998E-02     1.00282286E-24
  -1.61099993E-02     1.00294908E-24
  -1.61000006E-02     1.00305331E-24
  -1.60900000E-02     1.00313239E-24
  -1.60799995E-02     1.00318376E-24
  -1.60700008E-02     1.00320457E-24
  -1.60600003E-02     1.00319244E-24
  -1.60499997E-02     1.00314491E-24
  -1.60399992E-02     1.00306001E-24
  -1.60300005E-02     1.00293596E-24
  -1.60200000E-02     1.00277139E-24
  -1.60099994E-02     1.00256520E-24
  -1.60000008E-02     1.00231700E-24
  -1.59900002E-02     1.00202660E-24
  -1.59799997E-02     1.00169430E-24
  -1.59699991E-02     1.00132107E-24
  -1.59600005E-02     1.00090820E-24
  -1.59499999E-02     1.00045776E-24
  -1.59399994E-02     9.99972114E-25
  -1.59300007E-02     9.99454424E-25
  -1.59200002E-02     9.98908039E-25
  -1.59099996E-02     9.98337002E-25
  -1.59000009E-02     9.97745850E-25
  -1.58900004E-02     9.97139413E-25
  -1.58799998E-02     9.96523214E-25
  -1.58699993E-02     9.95902873E-25
  -1.58600006E-02     9.95284505E-25
  -1.58500001E-02     9.94674617E-25
  -1.58399995E-02     9.94080013E-25
  -1.58300009E-02     9.93507398E-25
  -1.58200003E-02     9.92963972E-25
  -1.58099998E-02     9.92457129E-25
  -1.57999992E-02     9.91994067E-25
  -1.57900006E-02     9.91582282E-25
  -1.57800000E-02     9.91229267E-25
  -1.57699995E-02     9.90942319E-25
  -1.57600008E-02     9.90728932E-25
  -1.57500003E-02     9.90595910E-25
  -1.57399997E-02     9.90550452E-25
  -1.57299992E-02     9.90599361E-25
  -1.57200005E-02     9.90748752E-25
  -1.57099999E-02     9.91004737E-25
  -1.56999994E-02     9.91372938E-25
  -1.56900007E-02     9.91858285E-25
  -1.56800002E-02     9.92465412E-25
  -1.56699996E-02     9.93198264E-25
  -1.56599991E-02     9.94060193E-25
  -1.56500004E-02     9.95053566E-25
  -1.56399999E-02     9.96180355E-25
  -1.56299993E-02     9.97441349E-25
  -1.56199997E-02     9.98836844E-25
  -1.56100001E-02     1.00036585E-24
  -1.55999996E-02     1.00202690E-24
  -1.55900000E-02     1.00381732E-24
  -1.55800004E-02     1.00573366E-24
  -1.55699998E-02     1.00777119E-24
  -1.55600002E-02     1.00992488E-24
  -1.55499997E-02     1.01218812E-24
  -1.55400001E-02     1.01455401E-24
  -1.55300004E-02     1.01701427E-24
  -1.55199999E-02     1.01956012E-24
  -1.55100003E-02     1.02218220E-24
  -1.54999997E-02     1.02487014E-24
  -1.54900001E-02     1.02761311E-24
  -1.54799996E-02     1.03039966E-24
  -1.54700000E-02     1.03321787E-24
  -1.54600004E-02     1.03605560E-24
  -1.54499998E-02     1.03890013E-24
  -1.54400002E-02     1.04173875E-24
  -1.54299997E-02     1.04455824E-24
  -1.54200001E-02     1.04734568E-24
  -1.54100005E-02     1.05008795E-24
  -1.53999999E-02     1.05277205E-24
  -1.53900003E-02     1.05538545E-24
  -1.53799998E-02     1.05791523E-24
  -1.53700002E-02     1.06034946E-24
  -1.53599996E-02     1.06267630E-24
  -1.53500000E-02     1.06488472E-24
  -1.53400004E-02     1.06696396E-24
  -1.53299998E-02     1.06890406E-24
  -1.53200002E-02     1.07069586E-24
  -1.53099997E-02     1.07233097E-24
  -1.53000001E-02     1.07380180E-24
  -1.52899995E-02     1.07510185E-24
  -1.52799999E-02     1.07622558E-24
  -1.52700003E-02     1.07716856E-24
  -1.52599998E-02     1.07792725E-24
  -1.52500002E-02     1.07849937E-24
  -1.52399996E-02     1.07888394E-24
  -1.52300000E-02     1.07908086E-24
  -1.52200004E-02     1.07909151E-24
  -1.52099999E-02     1.07891845E-24
  -1.52000003E-02     1.07856514E-24
  -1.51899997E-02     1.07803661E-24
  -1.51800001E-02     1.07733866E-24
  -1.51699996E-02     1.07647831E-24
  -1.51600000E-02     1.07546383E-24
  -1.51500003E-02     1.07430431E-24
  -1.51399998E-02     1.07300969E-24
  -1.51300002E-02     1.07159082E-24
  -1.51199996E-02     1.07005945E-24
  -1.51100000E-02     1.06842798E-24
  -1.51000004E-02     1.06670945E-24
  -1.50899999E-02     1.06491736E-24
  -1.50800003E-02     1.06306570E-24
  -1.50699997E-02     1.06116879E-24
  -1.50600001E-02     1.05924111E-24
  -1.50499996E-02     1.05729755E-24
  -1.50400000E-02     1.05535301E-24
  -1.50300004E-02     1.05342227E-24
  -1.50199998E-02     1.05152013E-24
  -1.50100002E-02     1.04966128E-24
  -1.49999997E-02     1.04786011E-24
  -1.49900001E-02     1.04613063E-24
  -1.49800004E-02     1.04448625E-24
  -1.49699999E-02     1.04294058E-24
  -1.49600003E-02     1.04150574E-24
  -1.49499997E-02     1.04019396E-24
  -1.49400001E-02     1.03901639E-24
  -1.49299996E-02     1.03798347E-24
  -1.49200000E-02     1.03710488E-24
  -1.49100004E-02     1.03638938E-24
  -1.48999998E-02     1.03584468E-24
  -1.48900002E-02     1.03547746E-24
  -1.48799997E-02     1.03529356E-24
  -1.48700001E-02     1.03529711E-24
  -1.48600005E-02     1.03549186E-24
  -1.48499999E-02     1.03587978E-24
  -1.48400003E-02     1.03646166E-24
  -1.48299998E-02     1.03723741E-24
  -1.48200002E-02     1.03820554E-24
  -1.48099996E-02     1.03936300E-24
  -1.48000000E-02     1.04070583E-24
  -1.47900004E-02     1.04222873E-24
  -1.47799999E-02     1.04392508E-24
  -1.47700002E-02     1.04578728E-24
  -1.47599997E-02     1.04780647E-24
  -1.47500001E-02     1.04997278E-24
  -1.47399995E-02     1.05227507E-24
  -1.47299999E-02     1.05470180E-24
  -1.47200003E-02     1.05723987E-24
  -1.47099998E-02     1.05987565E-24
  -1.47000002E-02     1.06259495E-24
  -1.46899996E-02     1.06538259E-24
  -1.46800000E-02     1.06822298E-24
  -1.46700004E-02     1.07110035E-24
  -1.46599999E-02     1.07399803E-24
  -1.46500003E-02     1.07689936E-24
  -1.46399997E-02     1.07978748E-24
  -1.46300001E-02     1.08264543E-24
  -1.46199996E-02     1.08545604E-24
  -1.46100000E-02     1.08820266E-24
  -1.46000003E-02     1.09086832E-24
  -1.45899998E-02     1.09343675E-24
  -1.45800002E-02     1.09589198E-24
  -1.45699997E-02     1.09821843E-24
  -1.45600000E-02     1.10040111E-24
  -1.45500004E-02     1.10242592E-24
  -1.45399999E-02     1.10427905E-24
  -1.45300003E-02     1.10594798E-24
  -1.45199997E-02     1.10742098E-24
  -1.45100001E-02     1.10868720E-24
  -1.44999996E-02     1.10973728E-24
  -1.44900000E-02     1.11056262E-24
  -1.44800004E-02     1.11115624E-24
  -1.44699998E-02     1.11151212E-24
  -1.44600002E-02     1.11162591E-24
  -1.44499997E-02     1.11149456E-24
  -1.44400001E-02     1.11111630E-24
  -1.44300004E-02     1.11049113E-24
  -1.44199999E-02     1.10962033E-24
  -1.44100003E-02     1.10850675E-24
  -1.43999998E-02     1.10715464E-24
  -1.43900001E-02     1.10556982E-24
  -1.43799996E-02     1.10375949E-24
  -1.43700000E-02     1.10173211E-24
  -1.43600004E-02     1.09949776E-24
  -1.43499998E-02     1.09706728E-24
  -1.43400002E-02     1.09445329E-24
  -1.43299997E-02     1.09166911E-24
  -1.43200001E-02     1.08872922E-24
  -1.43100005E-02     1.08564911E-24
  -1.42999999E-02     1.08244496E-24
  -1.42900003E-02     1.07913352E-24
  -1.42799998E-02     1.07573244E-24
  -1.42700002E-02     1.07225968E-24
  -1.42599996E-02     1.06873367E-24
  -1.42500000E-02     1.06517314E-24
  -1.42400004E-02     1.06159684E-24
  -1.42299999E-02     1.05802350E-24
  -1.42200002E-02     1.05447215E-24
  -1.42099997E-02     1.05096112E-24
  -1.42000001E-02     1.04750897E-24
  -1.41899996E-02     1.04413353E-24
  -1.41799999E-02     1.04085227E-24
  -1.41700003E-02     1.03768183E-24
  -1.41599998E-02     1.03463861E-24
  -1.41500002E-02     1.03173777E-24
  -1.41399996E-02     1.02899381E-24
  -1.41300000E-02     1.02642006E-24
  -1.41200004E-02     1.02402892E-24
  -1.41099999E-02     1.02183175E-24
  -1.41000003E-02     1.01983859E-24
  -1.40899997E-02     1.01805813E-24
  -1.40800001E-02     1.01649786E-24
  -1.40699996E-02     1.01516380E-24
  -1.40600000E-02     1.01406058E-24
  -1.40500003E-02     1.01319125E-24
  -1.40399998E-02     1.01255780E-24
  -1.40300002E-02     1.01216011E-24
  -1.40199997E-02     1.01199711E-24
  -1.40100000E-02     1.01206604E-24
  -1.40000004E-02     1.01236246E-24
  -1.39899999E-02     1.01288103E-24
  -1.39800003E-02     1.01361448E-24
  -1.39699997E-02     1.01455460E-24
  -1.39600001E-02     1.01569174E-24
  -1.39499996E-02     1.01701516E-24
  -1.39400000E-02     1.01851320E-24
  -1.39300004E-02     1.02017287E-24
  -1.39199998E-02     1.02198025E-24
  -1.39100002E-02     1.02392104E-24