  -2.19999999E-02     1.00000002E-24
  -2.19899993E-02     1.00000002E-24
  -2.19800007E-02     1.00000002E-24
  -2.19700001E-02     1.00000002E-24
  -2.19599996E-02     1.00000012E-24
  -2.19500009E-02     1.00000022E-24
  -2.19400004E-02     1.00000022E-24
  -2.19299998E-02     1.00000032E-24
  -2.19199993E-02     1.00000032E-24
  -2.19100006E-02     1.00000032E-24
  -2.19000001E-02     1.00000032E-24
  -2.18899995E-02     1.00000022E-24
  -2.18800008E-02     1.00000022E-24
  -2.18700003E-02     1.00000012E-24
  -2.18599997E-02     1.00000012E-24
  -2.18499992E-02     1.00000012E-24
  -2.18400005E-02     1.00000012E-24
  -2.18300000E-02     9.99999921E-25
  -2.18199994E-02     9.99999822E-25
  -2.18100008E-02     9.99999625E-25
  -2.18000002E-02     9.99999527E-25
  -2.17899997E-02     9.99999428E-25
  -2.17799991E-02     9.99999428E-25
  -2.17700005E-02     9.99999527E-25
  -2.17599999E-02     9.99999724E-25
  -2.17499994E-02     9.99999921E-25
  -2.17400007E-02     1.00000022E-24
  -2.17300002E-02     1.00000032E-24
  -2.17199996E-02     1.00000041E-24
  -2.17099991E-02     1.00000061E-24
  -2.17000004E-02     1.00000081E-24
  -2.16899998E-02     1.00000120E-24
  -2.16799993E-02     1.00000189E-24
  -2.16700006E-02     1.00000278E-24
  -2.16600001E-02     1.00000337E-24
  -2.16499995E-02     1.00000327E-24
  -2.16400009E-02     1.00000199E-24
  -2.16300003E-02     9.99999231E-25
  -2.16199998E-02     9.99994991E-25
  -2.16099992E-02     9.99989764E-25
  -2.16000006E-02     9.99984538E-25
  -2.15900000E-02     9.99980692E-25
  -2.15799995E-02     9.99980101E-25
  -2.15700008E-02     9.99984242E-25
  -2.15600003E-02     9.99994103E-25
  -2.15499997E-02     1.00000919E-24
  -2.15399992E-02     1.00002773E-24
  -2.15300005E-02     1.00004627E-24
  -2.15200000E-02     1.00006027E-24
  -2.15099994E-02     1.00006451E-24
  -2.15000007E-02     1.00005425E-24
  -2.14900002E-02     1.00002684E-24
  -2.14799996E-02     9.99981974E-25
  -2.14699991E-02     9.99922908E-25
  -2.14600004E-02     9.99856940E-25
  -2.14499999E-02     9.99794324E-25
  -2.14399993E-02     9.99747584E-25
  -2.14300007E-02     9.99729342E-25
  -2.14200001E-02     9.99749951E-25
  -2.14099996E-02     9.99815623E-25
  -2.14000009E-02     9.99926261E-25
  -2.13900004E-02     1.00007447E-24
  -2.13799998E-02     1.00024516E-24
  -2.13699993E-02     1.00041693E-24
  -2.13600006E-02     1.00056406E-24
  -2.13500001E-02     1.00065970E-24
  -2.13399995E-02     1.00067933E-24
  -2.13300008E-02     1.00060399E-24
  -2.13200003E-02     1.00042403E-24
  -2.13099997E-02     1.00014014E-24
  -2.12999992E-02     9.99764249E-25
  -2.12900005E-02     9.99318444E-25
  -2.12800000E-02     9.98832012E-25
  -2.12699994E-02     9.98337791E-25
  -2.12600008E-02     9.97867630E-25
  -2.12500002E-02     9.97446970E-25
  -2.12399997E-02     9.97091292E-25
  -2.12299991E-02     9.96802865E-25
  -2.12200005E-02     9.96569461E-25
  -2.12099999E-02     9.96365540E-25
  -2.11999994E-02     9.96154618E-25
  -2.11900007E-02     9.95894787E-25
  -2.11800002E-02     9.95544237E-25
  -2.11699996E-02     9.95068357E-25
  -2.11599991E-02     9.94445551E-25
  -2.11500004E-02     9.93672270E-25
  -2.11399999E-02     9.92765672E-25
  -2.11299993E-02     9.91763720E-25
  -2.11200006E-02     9.90722522E-25
  -2.11100001E-02     9.89710217E-25
  -2.10999995E-02     9.88800068E-25
  -2.10900009E-02     9.88061004E-25
  -2.10800003E-02     9.87548935E-25
  -2.10699998E-02     9.87298866E-25
  -2.10599992E-02     9.87318686E-25
  -2.10500006E-02     9.87587983E-25
  -2.10400000E-02     9.88058243E-25
  -2.10299995E-02     9.88658566E-25
  -2.10200008E-02     9.89303855E-25
  -2.10100003E-02     9.89905164E-25
  -2.09999997E-02     9.90381636E-25
  -2.09899992E-02     9.90671345E-25
  -2.09800005E-02     9.90740370E-25
  -2.09700000E-02     9.90588712E-25
  -2.09599994E-02     9.90251770E-25
  -2.09500007E-02     9.89798470E-25
  -2.09400002E-02     9.89323773E-25
  -2.09299996E-02     9.88938809E-25
  -2.09199991E-02     9.88757864E-25
  -2.09100004E-02     9.88885758E-25
  -2.08999999E-02     9.89404829E-25
  -2.08899993E-02     9.90365168E-25
  -2.08800007E-02     9.91778215E-25
  -2.08700001E-02     9.93614585E-25
  -2.08599996E-02     9.95806336E-25
  -2.08500009E-02     9.98254073E-25
  -2.08400004E-02     1.00083749E-24
  -2.08299998E-02     1.00342792E-24
  -2.08199993E-02     1.00590247E-24
  -2.08100006E-02     1.00815704E-24
  -2.08000001E-02     1.01011657E-24
  -2.07899995E-02     1.01174320E-24
  -2.07800008E-02     1.01303861E-24
  -2.07700003E-02     1.01404165E-24
  -2.07599998E-02     1.01482252E-24
  -2.07499992E-02     1.01547205E-24
  -2.07400005E-02     1.01608815E-24
  -2.07300000E-02     1.01676292E-24
  -2.07199994E-02     1.01756894E-24
  -2.07100008E-02     1.01854880E-24
  -2.07000002E-02     1.01970793E-24
  -2.06899997E-02     1.02101241E-24
  -2.06799991E-02     1.02239174E-24
  -2.06700005E-02     1.02374631E-24
  -2.06599999E-02     1.02495790E-24
  -2.06499994E-02     1.02590404E-24
  -2.06400007E-02     1.02647163E-24
  -2.06300002E-02     1.02656925E-24
  -2.06199996E-02     1.02613893E-24
  -2.06099991E-02     1.02516064E-24
  -2.06000004E-02     1.02365569E-24
  -2.05899999E-02     1.02168255E-24
  -2.05799993E-02     1.01933076E-24
  -2.05700006E-02     1.01670997E-24
  -2.05600001E-02     1.01393801E-24
  -2.05499995E-02     1.01112779E-24
  -2.05400009E-02     1.00837614E-24
  -2.05300003E-02     1.00575407E-24
  -2.05199998E-02     1.00330140E-24
  -2.05099992E-02     1.00102514E-24
  -2.05000006E-02     9.98901432E-25
  -2.04900000E-02     9.96881554E-25
  -2.04799995E-02     9.94900625E-25
  -2.04700008E-02     9.92887847E-25
  -2.04600003E-02     9.90777151E-25
  -2.04499997E-02     9.88516670E-25
  -2.04399992E-02     9.86076625E-25
  -2.04300005E-02     9.83454056E-25
  -2.04200000E-02     9.80674111E-25
  -2.04099994E-02     9.77788063E-25
  -2.04000007E-02     9.74868292E-25
  -2.03900002E-02     9.72000881E-25
  -2.03799997E-02     9.69276648E-25
  -2.03699991E-02     9.66783059E-25
  -2.03600004E-02     9.64595646E-25
  -2.03499999E-02     9.62771997E-25
  -2.03399993E-02     9.61348103E-25
  -2.03300007E-02     9.60336783E-25
  -2.03200001E-02     9.59729262E-25
  -2.03099996E-02     9.59498126E-25
  -2.03000009E-02     9.59602453E-25
  -2.02900004E-02     9.59993235E-25
  -2.02799998E-02     9.60619590E-25
  -2.02699993E-02     9.61433497E-25
  -2.02600006E-02     9.62394034E-25
  -2.02500001E-02     9.63469843E-25
  -2.02399995E-02     9.64640414E-25
  -2.02300008E-02     9.65895886E-25
  -2.02200003E-02     9.67235471E-25
  -2.02099998E-02     9.68665380E-25
  -2.01999992E-02     9.70196164E-25
  -2.01900005E-02     9.71840052E-25
  -2.01800000E-02     9.73607889E-25
  -2.01699995E-02     9.75506381E-25
  -2.01600008E-02     9.77536219E-25
  -2.01500002E-02     9.79690500E-25
  -2.01399997E-02     9.81953840E-25
  -2.01299991E-02     9.84301786E-25
  -2.01200005E-02     9.86701994E-25
  -2.01099999E-02     9.89114331E-25
  -2.00999994E-02     9.91492845E-25
  -2.00900007E-02     9.93787937E-25
  -2.00800002E-02     9.95948430E-25
  -2.00699996E-02     9.97924132E-25
  -2.00599991E-02     9.99669191E-25
  -2.00500004E-02     1.00114485E-24
  -2.00399999E-02     1.00232144E-24
  -2.00299993E-02     1.00318110E-24
  -2.00200006E-02     1.00371861E-24
  -2.00100001E-02     1.00394215E-24
  -1.99999996E-02     1.00387293E-24
  -1.99900009E-02     1.00354329E-24
  -1.99800003E-02     1.00299463E-24
  -1.99699998E-02     1.00227371E-24
  -1.99599992E-02     1.00142805E-24
  -1.99500006E-02     1.00050262E-24
  -1.99400000E-02     9.99534789E-25
  -1.99299995E-02     9.98550882E-25
  -1.99200008E-02     9.97564313E-25
  -1.99100003E-02     9.96574884E-25
  -1.98999997E-02     9.95569086E-25
  -1.98899992E-02     9.94522860E-25
  -1.98800005E-02     9.93406227E-25
  -1.98700000E-02     9.92187536E-25
  -1.98599994E-02     9.90839767E-25
  -1.98500007E-02     9.89345861E-25
  -1.98400002E-02     9.87702763E-25
  -1.98299997E-02     9.85924966E-25
  -1.98199991E-02     9.84044913E-25
  -1.98100004E-02     9.82112303E-25
  -1.97999999E-02     9.80189651E-25
  -1.97899994E-02     9.78346774E-25
  -1.97800007E-02     9.76654075E-25
  -1.97700001E-02     9.75173877E-25
  -1.97599996E-02     9.73953509E-25
  -1.97500009E-02     9.73018314E-25
  -1.97400004E-02     9.72367110E-25
  -1.97299998E-02     9.71971101E-25
  -1.97199993E-02     9.71774379E-25
  -1.97100006E-02     9.71699142E-25
  -1.97000001E-02     9.71652500E-25
  -1.96899995E-02     9.71537031E-25
  -1.96800008E-02     9.71260732E-25
  -1.96700003E-02     9.70748268E-25
  -1.96599998E-02     9.69950237E-25
  -1.96499992E-02     9.68849579E-25
  -1.96400005E-02     9.67465325E-25
  -1.96300000E-02     9.65850921E-25
  -1.96199995E-02     9.64089296E-25
  -1.96100008E-02     9.62284382E-25
  -1.96000002E-02     9.60549283E-25
  -1.95899997E-02     9.58993353E-25
  -1.95799991E-02     9.57709088E-25
  -1.95700005E-02     9.56761173E-25
  -1.95599999E-02     9.56178303E-25
  -1.95499994E-02     9.55949041E-25
  -1.95400007E-02     9.56023193E-25
  -1.95300002E-02     9.56316847E-25
  -1.95199996E-02     9.56722617E-25
  -1.95099991E-02     9.57122668E-25
  -1.95000004E-02     9.57402418E-25
  -1.94899999E-02     9.57465428E-25
  -1.94799993E-02     9.57245238E-25
  -1.94700006E-02     9.56713940E-25
  -1.94600001E-02     9.55886523E-25
  -1.94499996E-02     9.54819293E-25
  -1.94400009E-02     9.53604053E-25
  -1.94300003E-02     9.52357258E-25
  -1.94199998E-02     9.51205521E-25
  -1.94099993E-02     9.50271411E-25
  -1.94000006E-02     9.49656889E-25
  -1.93900000E-02     9.49431275E-25
  -1.93799995E-02     9.49621686E-25
  -1.93700008E-02     9.50209091E-25
  -1.93600003E-02     9.51128509E-25
  -1.93499997E-02     9.52277189E-25
  -1.93399992E-02     9.53524378E-25
  -1.93300005E-02     9.54726898E-25
  -1.93200000E-02     9.55745120E-25
  -1.93099994E-02     9.56459039E-25
  -1.93000007E-02     9.56782275E-25
  -1.92900002E-02     9.56672525E-25
  -1.92799997E-02     9.56136494E-25
  -1.92699991E-02     9.55229304E-25
  -1.92600004E-02     9.54049168E-25
  -1.92499999E-02     9.52725558E-25
  -1.92399994E-02     9.51404906E-25
  -1.92300007E-02     9.50234236E-25
  -1.92200001E-02     9.49344204E-25
  -1.92099996E-02     9.48834403E-25
  -1.92000009E-02     9.48762123E-25
  -1.91900004E-02     9.49135649E-25
  -1.91799998E-02     9.49913269E-25
  -1.91699993E-02     9.51008503E-25
  -1.91600006E-02     9.52298883E-25
  -1.91500001E-02     9.53640439E-25
  -1.91399995E-02     9.54883289E-25
  -1.91300008E-02     9.55888693E-25
  -1.91200003E-02     9.56543743E-25
  -1.91099998E-02     9.56773795E-25
  -1.90999992E-02     9.56550251E-25
  -1.90900005E-02     9.55893130E-25
  -1.90800000E-02     9.54868498E-25
  -1.90699995E-02     9.53580091E-25
  -1.90600008E-02     9.52158071E-25
  -1.90500002E-02     9.50744038E-25
  -1.90399997E-02     9.49474859E-25
  -1.90299992E-02     9.48467878E-25
  -1.90200005E-02     9.47807897E-25
  -1.90099999E-02     9.47538107E-25
  -1.89999994E-02     9.47656337E-25
  -1.89900007E-02     9.48115553E-25
  -1.89800002E-02     9.48830557E-25
  -1.89699996E-02     9.49688147E-25
  -1.89599991E-02     9.50561022E-25
  -1.89500004E-02     9.51322371E-25
  -1.89399999E-02     9.51861065E-25
  -1.89299993E-02     9.52094370E-25
  -1.89200006E-02     9.51976929E-25
  -1.89100001E-02     9.51506373E-25
  -1.88999996E-02     9.50723231E-25
  -1.88900009E-02     9.49705404E-25
  -1.88800003E-02     9.48560076E-25
  -1.88699998E-02     9.47411002E-25
  -1.88599993E-02     9.46384792E-25
  -1.88500006E-02     9.45597805E-25
  -1.88400000E-02     9.45143027E-25
  -1.88299995E-02     9.45081002E-25
  -1.88200008E-02     9.45433525E-25
  -1.88100003E-02     9.46181759E-25
  -1.87999997E-02     9.47268711E-25
  -1.87899992E-02     9.48605436E-25
  -1.87800005E-02     9.50080211E-25
  -1.87700000E-02     9.51570764E-25
  -1.87599994E-02     9.52956102E-25
  -1.87500007E-02     9.54128350E-25
  -1.87400002E-02     9.55003689E-25
  -1.87299997E-02     9.55529268E-25
  -1.87199991E-02     9.55687533E-25
  -1.87100004E-02     9.55496727E-25
  -1.86999999E-02     9.55007929E-25
  -1.86899994E-02     9.54298645E-25
  -1.86800007E-02     9.53464227E-25
  -1.86700001E-02     9.52607623E-25
  -1.86599996E-02     9.51827735E-25
  -1.86500009E-02     9.51210353E-25
  -1.86400004E-02     9.50819374E-25
  -1.86299998E-02     9.50690691E-25
  -1.86199993E-02     9.50829136E-25
  -1.86100006E-02     9.51208282E-25
  -1.86000001E-02     9.51774191E-25
  -1.85899995E-02     9.52449949E-25
  -1.85800008E-02     9.53143950E-25
  -1.85700003E-02     9.53758571E-25
  -1.85599998E-02     9.54199544E-25
  -1.85499992E-02     9.54384927E-25
  -1.85400005E-02     9.54252990E-25
  -1.85300000E-02     9.53768530E-25
  -1.85199995E-02     9.52925632E-25
  -1.85100008E-02     9.51749046E-25
  -1.85000002E-02     9.50292218E-25
  -1.84899997E-02     9.48632651E-25
  -1.84799992E-02     9.46865110E-25
  -1.84700005E-02     9.45094117E-25
  -1.84599999E-02     9.43424000E-25
  -1.84499994E-02     9.41949816E-25
  -1.84400007E-02     9.40748874E-25
  -1.84300002E-02     9.39873436E-25
  -1.84199996E-02     9.39345589E-25
  -1.84099991E-02     9.39155572E-25
  -1.84000004E-02     9.39262759E-25
  -1.83899999E-02     9.39599701E-25
  -1.83799993E-02     9.40079033E-25
  -1.83700006E-02     9.40602836E-25
  -1.83600001E-02     9.41073490E-25
  -1.83499996E-02     9.41404122E-25
  -1.83400009E-02     9.41528860E-25
  -1.83300003E-02     9.41410630E-25
  -1.83199998E-02     9.41046472E-25
  -1.83099993E-02     9.40468631E-25
  -1.83000006E-02     9.39741795E-25
  -1.82900000E-02     9.38956089E-25
  -1.82799995E-02     9.38217518E-25
  -1.82700008E-02     9.37636226E-25
  -1.82600003E-02     9.37314371E-25
  -1.82499997E-02     9.37334191E-25
  -1.82399992E-02     9.37748442E-25
  -1.82300005E-02     9.38574675E-25
  -1.82200000E-02     9.39792380E-25
  -1.82099994E-02     9.41344563E-25
  -1.82000007E-02     9.43143659E-25
  -1.81900002E-02     9.45079918E-25
  -1.81799997E-02     9.47033236E-25
  -1.81699991E-02     9.48885284E-25
  -1.81600004E-02     9.50532031E-25
  -1.81499999E-02     9.51894394E-25
  -1.81399994E-02     9.52926520E-25
  -1.81300007E-02     9.53620520E-25
  -1.81200001E-02     9.54007259E-25
  -1.81099996E-02     9.54152804E-25
  -1.81000009E-02     9.54151424E-25
  -1.80900004E-02     9.54115136E-25
  -1.80799998E-02     9.54160890E-25
  -1.80699993E-02     9.54397844E-25
  -1.80600006E-02     9.54913956E-25
  -1.80500001E-02     9.55766222E-25
  -1.80399995E-02     9.56973081E-25
  -1.80300009E-02     9.58512247E-25
  -1.80200003E-02     9.60321894E-25
  -1.80099998E-02     9.62306766E-25
  -1.79999992E-02     9.64347747E-25
  -1.79900005E-02     9.66313490E-25
  -1.79800000E-02     9.68073537E-25
  -1.79699995E-02     9.69510841E-25
  -1.79600008E-02     9.70533304E-25
  -1.79500002E-02     9.71081858E-25
  -1.79399997E-02     9.71135402E-25
  -1.79299992E-02     9.70712079E-25
  -1.79200005E-02     9.69866026E-25
  -1.79099999E-02     9.68681058E-25
  -1.78999994E-02     9.67261405E-25
  -1.78900007E-02     9.65719970E-25
  -1.78800002E-02     9.64166900E-25
  -1.78699996E-02     9.62697351E-25
  -1.78599991E-02     9.61381926E-25
  -1.78500004E-02     9.60259475E-25
  -1.78399999E-02     9.59332958E-25
  -1.78299993E-02     9.58570129E-25
  -1.78200006E-02     9.57907881E-25
  -1.78100001E-02     9.57260620E-25
  -1.77999996E-02     9.56530727E-25
  -1.77900009E-02     9.55620677E-25
  -1.77800003E-02     9.54445866E-25
  -1.77699998E-02     9.52944565E-25
  -1.77599993E-02     9.51086009E-25
  -1.77500006E-02     9.48875423E-25
  -1.77400000E-02     9.46354323E-25
  -1.77299995E-02     9.43598141E-25
  -1.77200008E-02     9.40709037E-25
  -1.77100003E-02     9.37808099E-25
  -1.76999997E-02     9.35024604E-25
  -1.76899992E-02     9.32484965E-25
  -1.76800005E-02     9.30302581E-25
  -1.76700000E-02     9.28568270E-25
  -1.76599994E-02     9.27343465E-25
  -1.76500008E-02     9.26655973E-25
  -1.76400002E-02     9.26498694E-25
  -1.76299997E-02     9.26830508E-25
  -1.76199991E-02     9.27581405E-25
  -1.76100004E-02     9.28659384E-25
  -1.75999999E-02     9.29958736E-25
  -1.75899994E-02     9.31370008E-25
  -1.75800007E-02     9.32790155E-25
  -1.75700001E-02     9.34130726E-25
  -1.75599996E-02     9.35326343E-25
  -1.75500009E-02     9.36338156E-25
  -1.75400004E-02     9.37156796E-25
  -1.75299998E-02     9.37801098E-25
  -1.75199993E-02     9.38315238E-25
  -1.75100006E-02     9.38763607E-25
  -1.75000001E-02     9.39223809E-25
  -1.74899995E-02     9.39779956E-25
  -1.74800009E-02     9.40513991E-25
  -1.74700003E-02     9.41498193E-25
  -1.74599998E-02     9.42788375E-25
  -1.74499992E-02     9.44417176E-25
  -1.74400005E-02     9.46389723E-25
  -1.74300000E-02     9.48680575E-25
  -1.74199995E-02     9.51233920E-25
  -1.74100008E-02     9.53965450E-25
  -1.74000002E-02     9.56767977E-25
  -1.73899997E-02     9.59519031E-25
  -1.73799992E-02     9.62091506E-25
  -1.73700005E-02     9.64364904E-25
  -1.73599999E-02     9.66237069E-25
  -1.73499994E-02     9.67634634E-25
  -1.73400007E-02     9.68521807E-25
  -1.73300002E-02     9.68904700E-25
  -1.73199996E-02     9.68831928E-25
  -1.73099991E-02     9.68391349E-25
  -1.73000004E-02     9.67701096E-25
  -1.72899999E-02     9.66899022E-25
  -1.72799993E-02     9.66128502E-25
  -1.72700007E-02     9.65524333E-25
  -1.72600001E-02     9.65197942E-25
  -1.72499996E-02     9.65225453E-25
  -1.72400009E-02     9.65637929E-25
  -1.72300003E-02     9.66416929E-25
  -1.72199998E-02     9.67493724E-25
  -1.72099993E-02     9.68755507E-25
  -1.72000006E-02     9.70054761E-25
  -1.71900000E-02     9.71224740E-25
  -1.71799995E-02     9.72096333E-25
  -1.71700008E-02     9.72517585E-25
  -1.71600003E-02     9.72370955E-25
  -1.71499997E-02     9.71588504E-25
  -1.71399992E-02     9.70161257E-25
  -1.71300005E-02     9.68143154E-25
  -1.71200000E-02     9.65646508E-25
  -1.71099994E-02     9.62832246E-25
  -1.71000008E-02     9.59892556E-25
  -1.70900002E-02     9.57030865E-25
  -1.70799997E-02     9.54439457E-25
  -1.70699991E-02     9.52278668E-25
  -1.70600004E-02     9.50659334E-25
  -1.70499999E-02     9.49630560E-25
  -1.70399994E-02     9.49175092E-25
  -1.70300007E-02     9.49211577E-25
  -1.70200001E-02     9.49603443E-25
  -1.70099996E-02     9.50174776E-25
  -1.70000009E-02     9.50729247E-25
  -1.69900004E-02     9.51072204E-25
  -1.69799998E-02     9.51032564E-25
  -1.69699993E-02     9.50482136E-25
  -1.69600006E-02     9.49350318E-25
  -1.69500001E-02     9.47633756E-25
  -1.69399995E-02     9.45398223E-25
  -1.69300009E-02     9.42773091E-25
  -1.69200003E-02     9.39939306E-25
  -1.69099998E-02     9.37110943E-25
  -1.68999992E-02     9.34514309E-25
  -1.68900006E-02     9.32363677E-25
  -1.68800000E-02     9.30839203E-25
  -1.68699995E-02     9.30068388E-25
  -1.68600008E-02     9.30111972E-25
  -1.68500002E-02     9.30958617E-25
  -1.68399997E-02     9.32526183E-25
  -1.68299992E-02     9.34671194E-25
  -1.68200005E-02     9.37205114E-25
  -1.68099999E-02     9.39914161E-25
  -1.67999994E-02     9.42582680E-25
  -1.67900007E-02     9.45015428E-25
  -1.67800002E-02     9.47057099E-25
  -1.67699996E-02     9.48607507E-25
  -1.67599991E-02     9.49630265E-25
  -1.67500004E-02     9.50154561E-25
  -1.67399999E-02     9.50270228E-25
  -1.67299993E-02     9.50115907E-25
  -1.67200007E-02     9.49862190E-25
  -1.67100001E-02     9.49692683E-25
  -1.66999996E-02     9.49782219E-25
  -1.66900009E-02     9.50278413E-25
  -1.66800003E-02     9.51284210E-25
  -1.66699998E-02     9.52847141E-25
  -1.66599993E-02     9.54953794E-25
  -1.66500006E-02     9.57530707E-25
  -1.66400000E-02     9.60451563E-25
  -1.66299995E-02     9.63549518E-25
  -1.66200008E-02     9.66633471E-25
  -1.66100003E-02     9.69506996E-25
  -1.65999997E-02     9.71986583E-25
  -1.65899992E-02     9.73919193E-25
  -1.65800005E-02     9.75196261E-25
  -1.65700000E-02     9.75763057E-25
  -1.65599994E-02     9.75623626E-25
  -1.65500008E-02     9.74838907E-25
  -1.65400002E-02     9.73520819E-25
  -1.65299997E-02     9.71821415E-25
  -1.65199991E-02     9.69918781E-25
  -1.65100005E-02     9.68000567E-25
  -1.64999999E-02     9.66247324E-25
  -1.64899994E-02     9.64816034E-25
  -1.64800007E-02     9.63826112E-25
  -1.64700001E-02     9.63348556E-25
  -1.64599996E-02     9.63400719E-25
  -1.64500009E-02     9.63944146E-25
  -1.64400004E-02     9.64889004E-25
  -1.64299998E-02     9.66103948E-25
  -1.64199993E-02     9.67427756E-25
  -1.64100006E-02     9.68686186E-25
  -1.64000001E-02     9.69708057E-25
  -1.63899995E-02     9.70342695E-25
  -1.63800009E-02     9.70474928E-25
  -1.63700003E-02     9.70036716E-25
  -1.63599998E-02     9.69015141E-25
  -1.63499992E-02     9.67454577E-25
  -1.63400006E-02     9.65453335E-25
  -1.63300000E-02     9.63155877E-25
  -1.63199995E-02     9.60739004E-25
  -1.63100008E-02     9.58395397E-25
  -1.63000003E-02     9.56314382E-25
  -1.62899997E-02     9.54662901E-25
  -1.62799992E-02     9.53567667E-25
  -1.62700005E-02     9.53101253E-25
  -1.62599999E-02     9.53272435E-25
  -1.62499994E-02     9.54023431E-25
  -1.62400007E-02     9.55234135E-25
  -1.62300002E-02     9.56733760E-25
  -1.62199996E-02     9.58317201E-25
  -1.62099991E-02     9.59767620E-25
  -1.62000004E-02     9.60879717E-25
  -1.61899999E-02     9.61483196E-25
  -1.61799993E-02     9.61462587E-25
  -1.61700007E-02     9.60771643E-25
  -1.61600001E-02     9.59440637E-25
  -1.61499996E-02     9.57574784E-25
  -1.61400009E-02     9.55345167E-25
  -1.61300004E-02     9.52970992E-25
  -1.61199998E-02     9.50697199E-25
  -1.61099993E-02     9.48768237E-25
  -1.61000006E-02     9.47401240E-25
  -1.60900000E-02     9.46761868E-25
  -1.60799995E-02     9.46945574E-25
  -1.60700008E-02     9.47966261E-25
  -1.60600003E-02     9.49753327E-25
  -1.60499997E-02     9.52159550E-25
  -1.60399992E-02     9.54975981E-25
  -1.60300005E-02     9.57954522E-25
  -1.60200000E-02     9.60834653E-25
  -1.60099994E-02     9.63372616E-25
  -1.60000008E-02     9.65367744E-25
  -1.59900002E-02     9.66684944E-25
  -1.59799997E-02     9.67269096E-25
  -1.59699991E-02     9.67150175E-25
  -1.59600005E-02     9.66439904E-25
  -1.59499999E-02     9.65317257E-25
  -1.59399994E-02     9.64008044E-25
  -1.59300007E-02     9.62757896E-25
  -1.59200002E-02     9.61804459E-25
  -1.59099996E-02     9.61350568E-25
  -1.59000009E-02     9.61541177E-25
  -1.58900004E-02     9.62447184E-25
  -1.58799998E-02     9.64057643E-25
  -1.58699993E-02     9.66280949E-25
  -1.58600006E-02     9.68955385E-25
  -1.58500001E-02     9.71866774E-25
  -1.58399995E-02     9.74772346E-25
  -1.58300009E-02     9.77426962E-25
  -1.58200003E-02     9.79610529E-25
  -1.58099998E-02     9.81150583E-25
  -1.57999992E-02     9.81941218E-25
  -1.57900006E-02     9.81952460E-25
  -1.57800000E-02     9.81232328E-25
  -1.57699995E-02     9.79900041E-25
  -1.57600008E-02     9.78131809E-25
  -1.57500003E-02     9.76138949E-25
  -1.57399997E-02     9.74144512E-25
  -1.57299992E-02     9.72358136E-25
  -1.57200005E-02     9.70952781E-25
  -1.57099999E-02     9.70046872E-25
  -1.56999994E-02     9.69692181E-25
  -1.56900007E-02     9.69869773E-25
  -1.56800002E-02     9.70493466E-25
  -1.56699996E-02     9.71420575E-25
  -1.56599991E-02     9.72468478E-25
  -1.56500004E-02     9.73435129E-25
  -1.56399999E-02     9.74120550E-25
  -1.56299993E-02     9.74349320E-25
  -1.56199997E-02     9.73989008E-25
  -1.56100001E-02     9.72964967E-25
  -1.55999996E-02     9.71268818E-25
  -1.55900000E-02     9.68959428E-25
  -1.55800004E-02     9.66157492E-25
  -1.55699998E-02     9.63032716E-25
  -1.55600002E-02     9.59786257E-25
  -1.55499997E-02     9.56629729E-25
  -1.55400001E-02     9.53763501E-25
  -1.55300004E-02     9.51356785E-25
  -1.55199999E-02     9.49531263E-25
  -1.55100003E-02     9.48350436E-25
  -1.54999997E-02     9.47815392E-25
  -1.54900001E-02     9.47868147E-25
  -1.54799996E-02     9.48400332E-25
  -1.54700000E-02     9.49267487E-25
  -1.54600004E-02     9.50306023E-25
  -1.54499998E-02     9.51350869E-25
  -1.54400002E-02     9.52252734E-25
  -1.54299997E-02     9.52892106E-25
  -1.54200001E-02     9.53189506E-25
  -1.54100005E-02     9.53112395E-25
  -1.53999999E-02     9.52675859E-25
  -1.53900003E-02     9.51940049E-25
  -1.53799998E-02     9.51003869E-25
  -1.53700002E-02     9.49993930E-25
  -1.53599996E-02     9.49051537E-25
  -1.53500000E-02     9.48318290E-25
  -1.53400004E-02     9.47921296E-25
  -1.53299998E-02     9.47959457E-25
  -1.53200002E-02     9.48492629E-25
  -1.53099997E-02     9.49534221E-25
  -1.53000001E-02     9.51049623E-25
  -1.52899995E-02     9.52958962E-25
  -1.52799999E-02     9.55143909E-25
  -1.52700003E-02     9.57460794E-25
  -1.52599998E-02     9.59753914E-25
  -1.52500002E-02     9.61871710E-25
  -1.52399996E-02     9.63681652E-25
  -1.52300000E-02     9.65083261E-25
  -1.52200004E-02     9.66016582E-25
  -1.52099999E-02     9.66467416E-25
  -1.52000003E-02     9.66467416E-25
  -1.51899997E-02     9.66089847E-25
  -1.51800001E-02     9.65441009E-25
  -1.51699996E-02     9.64650176E-25
  -1.51600000E-02     9.63856286E-25
  -1.51500003E-02     9.63194728E-25
  -1.51399998E-02     9.62783337E-25
  -1.51300002E-02     9.62710466E-25
  -1.51199996E-02     9.63025616E-25
  -1.51100000E-02     9.63732731E-25
  -1.51000004E-02     9.64789410E-25
  -1.50899999E-02     9.66109175E-25
  -1.50800003E-02     9.67569849E-25
  -1.50699997E-02     9.69025889E-25
  -1.50600001E-02     9.70322776E-25
  -1.50499996E-02     9.71313783E-25
  -1.50400000E-02     9.71875452E-25
  -1.50300004E-02     9.71921009E-25
  -1.50199998E-02     9.71410418E-25
  -1.50100002E-02     9.70354430E-25
  -1.49999997E-02     9.68814573E-25
  -1.49900001E-02     9.66895767E-25
  -1.49800004E-02     9.64736261E-25
  -1.49699999E-02     9.62492543E-25
  -1.49600003E-02     9.60323570E-25
  -1.49499997E-02     9.58373999E-25
  -1.49400001E-02     9.56759201E-25
  -1.49299996E-02     9.55553920E-25
  -1.49200000E-02     9.54784485E-25
  -1.49100004E-02     9.54426342E-25
  -1.48999998E-02     9.54406620E-25
  -1.48900002E-02     9.54611724E-25
  -1.48799997E-02     9.54899658E-25
  -1.48700001E-02     9.55115708E-25
  -1.48600005E-02     9.55109298E-25
  -1.48499999E-02     9.54750761E-25
  -1.48400003E-02     9.53945925E-25
  -1.48299998E-02     9.52647165E-25
  -1.48200002E-02     9.50859409E-25
  -1.48099996E-02     9.48639948E-25
  -1.48000000E-02     9.46093111E-25
  -1.47900004E-02     9.43360300E-25
  -1.47799999E-02     9.40605104E-25
  -1.47700002E-02     9.37996736E-25
  -1.47599997E-02     9.35692966E-25
  -1.47500001E-02     9.33822873E-25
  -1.47399995E-02     9.32473920E-25
  -1.47299999E-02     9.31681806E-25
  -1.47200003E-02     9.31426708E-25
  -1.47099998E-02     9.31634474E-25
  -1.47000002E-02     9.32184113E-25
  -1.46899996E-02     9.32920613E-25
  -1.46800000E-02     9.33671510E-25
  -1.46700004E-02     9.34266114E-25
  -1.46599999E-02     9.34554245E-25
  -1.46500003E-02     9.34424478E-25
  -1.46399997E-02     9.33816759E-25
  -1.46300001E-02     9.32730300E-25
  -1.46199996E-02     9.31223773E-25
  -1.46100000E-02     9.29408900E-25
  -1.46000003E-02     9.27437438E-25
  -1.45899998E-02     9.25483824E-25
  -1.45800002E-02     9.23725059E-25
  -1.45699997E-02     9.22321379E-25
  -1.45600000E-02     9.21398215E-25
  -1.45500004E-02     9.21033367E-25
  -1.45399999E-02     9.21249712E-25
  -1.45300003E-02     9.22013230E-25
  -1.45199997E-02     9.23237050E-25
  -1.45100001E-02     9.24791303E-25
  -1.44999996E-02     9.26516640E-25
  -1.44900000E-02     9.28240203E-25
  -1.44800004E-02     9.29794061E-25
  -1.44699998E-02     9.31031784E-25
  -1.44600002E-02     9.31843719E-25
  -1.44499997E-02     9.32169223E-25
  -1.44400001E-02     9.32002083E-25
  -1.44300004E-02     9.31391899E-25
  -1.44199999E-02     9.30438758E-25
  -1.44100003E-02     9.29281499E-25
  -1.43999998E-02     9.28081937E-25
  -1.43900001E-02     9.27006030E-25
  -1.43799996E-02     9.26203660E-25
  -1.43700000E-02     9.25790790E-25
  -1.43600004E-02     9.25835755E-25
  -1.43499998E-02     9.26351078E-25
  -1.43400002E-02     9.27292288E-25
  -1.43299997E-02     9.28563044E-25
  -1.43200001E-02     9.30026282E-25
  -1.43100005E-02     9.31520089E-25
  -1.42999999E-02     9.32874958E-25
  -1.42900003E-02     9.33932228E-25
  -1.42799998E-02     9.34559965E-25
  -1.42700002E-02     9.34667250E-25
  -1.42599996E-02     9.34213457E-25
  -1.42500000E-02     9.33213182E-25
  -1.42400004E-02     9.31735054E-25
  -1.42299999E-02     9.29896219E-25
  -1.42200002E-02     9.27851097E-25
  -1.42099997E-02     9.25775801E-25
  -1.42000001E-02     9.23849896E-25
  -1.41899996E-02     9.22236873E-25
  -1.41799999E-02     9.21065710E-25
  -1.41700003E-02     9.20415787E-25
  -1.41599998E-02     9.20307319E-25
  -1.41500002E-02     9.20698495E-25
  -1.41399996E-02     9.21490018E-25
  -1.41300000E-02     9.22537429E-25
  -1.41200004E-02     9.23668063E-25
  -1.41099999E-02     9.24701767E-25
  -1.41000003E-02     9.25471104E-25
  -1.40899997E-02     9.25839502E-25
  -1.40800001E-02     9.25714862E-25
  -1.40699996E-02     9.25057050E-25
  -1.40600000E-02     9.23879281E-25
  -1.40500003E-02     9.22243676E-25
  -1.40399998E-02     9.20253183E-25
  -1.40300002E-02     9.18040133E-25
  -1.40199997E-02     9.15753126E-25
  -1.40100000E-02     9.13543034E-25
  -1.40000004E-02     9.11550075E-25
  -1.39899999E-02     9.09891002E-25
  -1.39800003E-02     9.08648743E-25
  -1.39699997E-02     9.07864221E-25
  -1.39600001E-02     9.07532209E-25
  -1.39499996E-02     9.07600643E-25
  -1.39400000E-02     9.07975451E-25
  -1.39300004E-02     9.08530020E-25
  -1.39199998E-02     9.09119398E-25
  -1.39100002E-02     9.09595771E-25