  -2.19999999E-02     1.00000002E-24
  -2.19899993E-02     1.00000002E-24
  -2.19800007E-02     1.00000002E-24
  -2.19700001E-02     1.00000002E-24
  -2.19599996E-02     1.00000002E-24
  -2.19500009E-02     1.00000002E-24
  -2.19400004E-02     1.00000012E-24
  -2.19299998E-02     1.00000022E-24
  -2.19199993E-02     1.00000032E-24
  -2.19100006E-02     1.00000032E-24
  -2.19000001E-02     1.00000032E-24
  -2.18899995E-02     1.00000022E-24
  -2.18800008E-02     1.00000012E-24
  -2.18700003E-02     1.00000002E-24
  -2.18599997E-02     9.99999921E-25
  -2.18499992E-02     9.99999822E-25
  -2.18400005E-02     9.99999822E-25
  -2.18300000E-02     9.99999822E-25
  -2.18199994E-02     9.99999921E-25
  -2.18100008E-02     9.99999921E-25
  -2.18000002E-02     1.00000012E-24
  -2.17899997E-02     1.00000022E-24
  -2.17799991E-02     1.00000041E-24
  -2.17700005E-02     1.00000041E-24
  -2.17599999E-02     1.00000051E-24
  -2.17499994E-02     1.00000041E-24
  -2.17400007E-02     1.00000032E-24
  -2.17300002E-02     1.00000012E-24
  -2.17199996E-02     1.00000012E-24
  -2.17099991E-02     1.00000002E-24
  -2.17000004E-02     1.00000002E-24
  -2.16899998E-02     1.00000002E-24
  -2.16799993E-02     1.00000002E-24
  -2.16700006E-02     9.99999822E-25
  -2.16600001E-02     9.99999527E-25
  -2.16499995E-02     9.99999231E-25
  -2.16400009E-02     9.99999033E-25
  -2.16300003E-02     9.99999132E-25
  -2.16199998E-02     9.99999527E-25
  -2.16099992E-02     1.00000061E-24
  -2.16000006E-02     1.00000199E-24
  -2.15900000E-02     1.00000357E-24
  -2.15799995E-02     1.00000485E-24
  -2.15700008E-02     1.00000534E-24
  -2.15600003E-02     1.00000446E-24
  -2.15499997E-02     1.00000199E-24
  -2.15399992E-02     9.99997949E-25
  -2.15300005E-02     9.99992920E-25
  -2.15200000E-02     9.99987989E-25
  -2.15099994E-02     9.99984144E-25
  -2.15000007E-02     9.99983059E-25
  -2.14900002E-02     9.99985623E-25
  -2.14799996E-02     9.99992131E-25
  -2.14699991E-02     1.00000219E-24
  -2.14600004E-02     1.00001432E-24
  -2.14499999E-02     1.00002654E-24
  -2.14399993E-02     1.00003601E-24
  -2.14300007E-02     1.00004065E-24
  -2.14200001E-02     1.00003858E-24
  -2.14099996E-02     1.00002940E-24
  -2.14000009E-02     1.00001353E-24
  -2.13900004E-02     9.99993314E-25
  -2.13799998E-02     9.99971621E-25
  -2.13699993E-02     9.99951899E-25
  -2.13600006E-02     9.99937206E-25
  -2.13500001E-02     9.99930008E-25
  -2.13399995E-02     9.99931586E-25
  -2.13300008E-02     9.99942038E-25
  -2.13200003E-02     9.99959788E-25
  -2.13099997E-02     9.99982665E-25
  -2.12999992E-02     1.00000761E-24
  -2.12900005E-02     1.00003187E-24
  -2.12800000E-02     1.00005258E-24
  -2.12699994E-02     1.00006737E-24
  -2.12600008E-02     1.00007457E-24
  -2.12500002E-02     1.00007348E-24
  -2.12399997E-02     1.00006421E-24
  -2.12299991E-02     1.00004755E-24
  -2.12200005E-02     1.00002566E-24
  -2.12099999E-02     1.00000140E-24
  -2.11999994E-02     9.99979115E-25
  -2.11900007E-02     9.99963633E-25
  -2.11800002E-02     9.99959886E-25
  -2.11699996E-02     9.99972311E-25
  -2.11599991E-02     1.00000357E-24
  -2.11500004E-02     1.00005366E-24
  -2.11399999E-02     1.00011924E-24
  -2.11299993E-02     1.00019280E-24
  -2.11200006E-02     1.00026350E-24
  -2.11100001E-02     1.00031704E-24
  -2.10999995E-02     1.00033686E-24
  -2.10900009E-02     1.00030560E-24
  -2.10800003E-02     1.00020581E-24
  -2.10699998E-02     1.00002112E-24
  -2.10599992E-02     9.99736934E-25
  -2.10500006E-02     9.99340236E-25
  -2.10400000E-02     9.98819785E-25
  -2.10299995E-02     9.98165819E-25
  -2.10200008E-02     9.97370154E-25
  -2.10100003E-02     9.96425987E-25
  -2.09999997E-02     9.95328681E-25
  -2.09899992E-02     9.94077055E-25
  -2.09800005E-02     9.92673967E-25
  -2.09700000E-02     9.91127898E-25
  -2.09599994E-02     9.89453146E-25
  -2.09500007E-02     9.87670124E-25
  -2.09400002E-02     9.85804566E-25
  -2.09299996E-02     9.83886648E-25
  -2.09199991E-02     9.81948515E-25
  -2.09100004E-02     9.80023695E-25
  -2.08999999E-02     9.78144530E-25
  -2.08899993E-02     9.76341194E-25
  -2.08800007E-02     9.74640508E-25
  -2.08700001E-02     9.73066336E-25
  -2.08599996E-02     9.71638892E-25
  -2.08500009E-02     9.70374940E-25
  -2.08400004E-02     9.69288087E-25
  -2.08299998E-02     9.68388095E-25
  -2.08199993E-02     9.67681177E-25
  -2.08100006E-02     9.67168418E-25
  -2.08000001E-02     9.66845872E-25
  -2.07899995E-02     9.66704271E-25
  -2.07800008E-02     9.66728923E-25
  -2.07700003E-02     9.66900994E-25
  -2.07599998E-02     9.67198986E-25
  -2.07499992E-02     9.67600713E-25
  -2.07400005E-02     9.68085370E-25
  -2.07300000E-02     9.68635206E-25
  -2.07199994E-02     9.69237205E-25
  -2.07100008E-02     9.69883677E-25
  -2.07000002E-02     9.70572352E-25
  -2.06899997E-02     9.71306190E-25
  -2.06799991E-02     9.72091698E-25
  -2.06700005E-02     9.72937752E-25
  -2.06599999E-02     9.73854310E-25
  -2.06499994E-02     9.74850739E-25
  -2.06400007E-02     9.75934536E-25
  -2.06300002E-02     9.77110234E-25
  -2.06199996E-02     9.78378723E-25
  -2.06099991E-02     9.79736549E-25
  -2.06000004E-02     9.81176221E-25
  -2.05899999E-02     9.82685213E-25
  -2.05799993E-02     9.84247453E-25
  -2.05700006E-02     9.85843516E-25
  -2.05600001E-02     9.87452201E-25
  -2.05499995E-02     9.89051715E-25
  -2.05400009E-02     9.90620858E-25
  -2.05300003E-02     9.92140007E-25
  -2.05199998E-02     9.93592102E-25
  -2.05099992E-02     9.94962157E-25
  -2.05000006E-02     9.96237252E-25
  -2.04900000E-02     9.97406048E-25
  -2.04799995E-02     9.98457994E-25
  -2.04700008E-02     9.99383130E-25
  -2.04600003E-02     1.00017189E-24
  -2.04499997E-02     1.00081541E-24
  -2.04399992E-02     1.00130657E-24
  -2.04300005E-02     1.00164055E-24
  -2.04200000E-02     1.00181608E-24
  -2.04099994E-02     1.00183590E-24
  -2.04000007E-02     1.00170662E-24
  -2.03900002E-02     1.00143870E-24
  -2.03799997E-02     1.00104516E-24
  -2.03699991E-02     1.00054088E-24
  -2.03600004E-02     9.99940954E-25
  -2.03499999E-02     9.99260068E-25
  -2.03399993E-02     9.98512129E-25
  -2.03300007E-02     9.97709858E-25
  -2.03200001E-02     9.96865284E-25
  -2.03099996E-02     9.95989747E-25
  -2.03000009E-02     9.95094192E-25
  -2.02900004E-02     9.94188580E-25
  -2.02799998E-02     9.93281291E-25
  -2.02699993E-02     9.92378243E-25
  -2.02600006E-02     9.91481899E-25
  -2.02500001E-02     9.90589895E-25
  -2.02399995E-02     9.89695524E-25
  -2.02300008E-02     9.88786855E-25
  -2.02200003E-02     9.87848702E-25
  -2.02099998E-02     9.86863217E-25
  -2.01999992E-02     9.85813145E-25
  -2.01900005E-02     9.84683102E-25
  -2.01800000E-02     9.83462537E-25
  -2.01699995E-02     9.82147013E-25
  -2.01600008E-02     9.80739488E-25
  -2.01500002E-02     9.79250611E-25
  -2.01399997E-02     9.77697837E-25
  -2.01299991E-02     9.76104239E-25
  -2.01200005E-02     9.74496837E-25
  -2.01099999E-02     9.72904028E-25
  -2.00999994E-02     9.71354409E-25
  -2.00900007E-02     9.69874408E-25
  -2.00800002E-02     9.68487492E-25
  -2.00699996E-02     9.67213481E-25
  -2.00599991E-02     9.66068548E-25
  -2.00500004E-02     9.65065906E-25
  -2.00399999E-02     9.64216796E-25
  -2.00299993E-02     9.63531276E-25
  -2.00200006E-02     9.63018220E-25
  -2.00100001E-02     9.62685715E-25
  -1.99999996E-02     9.62539579E-25
  -1.99900009E-02     9.62581586E-25
  -1.99800003E-02     9.62808778E-25
  -1.99699998E-02     9.63210801E-25
  -1.99599992E-02     9.63770202E-25
  -1.99500006E-02     9.64462329E-25
  -1.99400000E-02     9.65257303E-25
  -1.99299995E-02     9.66122289E-25
  -1.99200008E-02     9.67024746E-25
  -1.99100003E-02     9.67935782E-25
  -1.98999997E-02     9.68831731E-25
  -1.98899992E-02     9.69695829E-25
  -1.98800005E-02     9.70517428E-25
  -1.98700000E-02     9.71291005E-25
  -1.98599994E-02     9.72013305E-25
  -1.98500007E-02     9.72681273E-25
  -1.98400002E-02     9.73291359E-25
  -1.98299997E-02     9.73838828E-25
  -1.98199991E-02     9.74319540E-25
  -1.98100004E-02     9.74731819E-25
  -1.97999999E-02     9.75079608E-25
  -1.97899994E-02     9.75373754E-25
  -1.97800007E-02     9.75633092E-25
  -1.97700001E-02     9.75883358E-25
  -1.97599996E-02     9.76154036E-25
  -1.97500009E-02     9.76474905E-25
  -1.97400004E-02     9.76872097E-25
  -1.97299998E-02     9.77364543E-25
  -1.97199993E-02     9.77962500E-25
  -1.97100006E-02     9.78667446E-25
  -1.97000001E-02     9.79473662E-25
  -1.96899995E-02     9.80370892E-25
  -1.96800008E-02     9.81347009E-25
  -1.96700003E-02     9.82390179E-25
  -1.96599998E-02     9.83489752E-25
  -1.96499992E-02     9.84635967E-25
  -1.96400005E-02     9.85818075E-25
  -1.96300000E-02     9.87023455E-25
  -1.96199995E-02     9.88236033E-25
  -1.96100008E-02     9.89436383E-25
  -1.96000002E-02     9.90603503E-25
  -1.95899997E-02     9.91716388E-25
  -1.95799991E-02     9.92756896E-25
  -1.95700005E-02     9.93710727E-25
  -1.95599999E-02     9.94568712E-25
  -1.95499994E-02     9.95324342E-25
  -1.95400007E-02     9.95972194E-25
  -1.95300002E-02     9.96504971E-25
  -1.95199996E-02     9.96911235E-25
  -1.95099991E-02     9.97175700E-25
  -1.95000004E-02     9.97280323E-25
  -1.94899999E-02     9.97207748E-25
  -1.94799993E-02     9.96946240E-25
  -1.94700006E-02     9.96493336E-25
  -1.94600001E-02     9.95858500E-25
  -1.94499996E-02     9.95062835E-25
  -1.94400009E-02     9.94135726E-25
  -1.94300003E-02     9.93109418E-25
  -1.94199998E-02     9.92013296E-25
  -1.94099993E-02     9.90867574E-25
  -1.94000006E-02     9.89681620E-25
  -1.93900000E-02     9.88453956E-25
  -1.93799995E-02     9.87176198E-25
  -1.93700008E-02     9.85839670E-25
  -1.93600003E-02     9.84442203E-25
  -1.93499997E-02     9.82992573E-25
  -1.93399992E-02     9.81511980E-25
  -1.93300005E-02     9.80031978E-25
  -1.93200000E-02     9.78588165E-25
  -1.93099994E-02     9.77212490E-25
  -1.93000007E-02     9.75925168E-25
  -1.92900002E-02     9.74731030E-25
  -1.92799997E-02     9.73617750E-25
  -1.92699991E-02     9.72560873E-25
  -1.92600004E-02     9.71530128E-25
  -1.92499999E-02     9.70498890E-25
  -1.92399994E-02     9.69451874E-25
  -1.92300007E-02     9.68389278E-25
  -1.92200001E-02     9.67326683E-25
  -1.92099996E-02     9.66290613E-25
  -1.92000009E-02     9.65310058E-25
  -1.91900004E-02     9.64408785E-25
  -1.91799998E-02     9.63598428E-25
  -1.91699993E-02     9.62876127E-25
  -1.91600006E-02     9.62225908E-25
  -1.91500001E-02     9.61625585E-25
  -1.91399995E-02     9.61054548E-25
  -1.91300008E-02     9.60501360E-25
  -1.91200003E-02     9.59968780E-25
  -1.91099998E-02     9.59473967E-25
  -1.90999992E-02     9.59044432E-25
  -1.90900005E-02     9.58710547E-25
  -1.90800000E-02     9.58496963E-25
  -1.90699995E-02     9.58416696E-25
  -1.90600008E-02     9.58467479E-25
  -1.90500002E-02     9.58633633E-25
  -1.90399997E-02     9.58891788E-25
  -1.90299992E-02     9.59217784E-25
  -1.90200005E-02     9.59594465E-25
  -1.90099999E-02     9.60015224E-25
  -1.89999994E-02     9.60484103E-25
  -1.89900007E-02     9.61011753E-25
  -1.89800002E-02     9.61609019E-25
  -1.89699996E-02     9.62278959E-25
  -1.89599991E-02     9.63012600E-25
  -1.89500004E-02     9.63787656E-25
  -1.89399999E-02     9.64572572E-25
  -1.89299993E-02     9.65333921E-25
  -1.89200006E-02     9.66045375E-25
  -1.89100001E-02     9.66694016E-25
  -1.88999996E-02     9.67284479E-25
  -1.88900009E-02     9.67835892E-25
  -1.88800003E-02     9.68375473E-25
  -1.88699998E-02     9.68928070E-25
  -1.88599993E-02     9.69506996E-25
  -1.88500006E-02     9.70107910E-25
  -1.88400000E-02     9.70708234E-25
  -1.88299995E-02     9.71272959E-25
  -1.88200008E-02     9.71764025E-25
  -1.88100003E-02     9.72152737E-25
  -1.87999997E-02     9.72428838E-25
  -1.87899992E-02     9.72605345E-25
  -1.87800005E-02     9.72716279E-25
  -1.87700000E-02     9.72808280E-25
  -1.87599994E-02     9.72928483E-25
  -1.87500007E-02     9.73111498E-25
  -1.87400002E-02     9.73370541E-25
  -1.87299997E-02     9.73694861E-25
  -1.87199991E-02     9.74054286E-25
  -1.87100004E-02     9.74409766E-25
  -1.86999999E-02     9.74727283E-25
  -1.86899994E-02     9.74989678E-25
  -1.86800007E-02     9.75203360E-25
  -1.86700001E-02     9.75397814E-25
  -1.86599996E-02     9.75617907E-25
  -1.86500009E-02     9.75909982E-25
  -1.86400004E-02     9.76307766E-25
  -1.86299998E-02     9.76820032E-25
  -1.86199993E-02     9.77426272E-25
  -1.86100006E-02     9.78078561E-25
  -1.86000001E-02     9.78712509E-25
  -1.85899995E-02     9.79260571E-25
  -1.85800008E-02     9.79667130E-25
  -1.85700003E-02     9.79898759E-25
  -1.85599998E-02     9.79948260E-25
  -1.85499992E-02     9.79832100E-25
  -1.85400005E-02     9.79580256E-25
  -1.85300000E-02     9.79225959E-25
  -1.85199995E-02     9.78794255E-25
  -1.85100008E-02     9.78296582E-25
  -1.85000002E-02     9.77731068E-25
  -1.84899997E-02     9.77087752E-25
  -1.84799992E-02     9.76358253E-25
  -1.84700005E-02     9.75544050E-25
  -1.84599999E-02     9.74662498E-25
  -1.84499994E-02     9.73745940E-25
  -1.84400007E-02     9.72836087E-25
  -1.84300002E-02     9.71973862E-25
  -1.84199996E-02     9.71188946E-25
  -1.84099991E-02     9.70492086E-25
  -1.84000004E-02     9.69872633E-25
  -1.83899999E-02     9.69302878E-25
  -1.83799993E-02     9.68748210E-25
  -1.83700006E-02     9.68178455E-25
  -1.83600001E-02     9.67578428E-25
  -1.83499996E-02     9.66953552E-25
  -1.83400009E-02     9.66328478E-25
  -1.83300003E-02     9.65739495E-25
  -1.83199998E-02     9.65222791E-25
  -1.83099993E-02     9.64802624E-25
  -1.83000006E-02     9.64481656E-25
  -1.82900000E-02     9.64239771E-25
  -1.82799995E-02     9.64039006E-25
  -1.82700008E-02     9.63834001E-25
  -1.82600003E-02     9.63586102E-25
  -1.82499997E-02     9.63274797E-25
  -1.82399992E-02     9.62904033E-25
  -1.82300005E-02     9.62501516E-25
  -1.82200000E-02     9.62109255E-25
  -1.82099994E-02     9.61770834E-25
  -1.82000007E-02     9.61517511E-25
  -1.81900002E-02     9.61357668E-25
  -1.81799997E-02     9.61274345E-25
  -1.81699991E-02     9.61230267E-25
  -1.81600004E-02     9.61179287E-25
  -1.81499999E-02     9.61081764E-25
  -1.81399994E-02     9.60918075E-25
  -1.81300007E-02     9.60696011E-25
  -1.81200001E-02     9.60451760E-25
  -1.81099996E-02     9.60240641E-25
  -1.81000009E-02     9.60123890E-25
  -1.80900004E-02     9.60152979E-25
  -1.80799998E-02     9.60357195E-25
  -1.80699993E-02     9.60737821E-25
  -1.80600006E-02     9.61269612E-25
  -1.80500001E-02     9.61911350E-25
  -1.80399995E-02     9.62618465E-25
  -1.80300009E-02     9.63357332E-25
  -1.80200003E-02     9.64114343E-25
  -1.80099998E-02     9.64898766E-25
  -1.79999992E-02     9.65737621E-25
  -1.79900005E-02     9.66665223E-25
  -1.79800000E-02     9.67710562E-25
  -1.79699995E-02     9.68886557E-25
  -1.79600008E-02     9.70184331E-25
  -1.79500002E-02     9.71574304E-25
  -1.79399997E-02     9.73013187E-25
  -1.79299992E-02     9.74454928E-25
  -1.79200005E-02     9.75860383E-25
  -1.79099999E-02     9.77204602E-25
  -1.78999994E-02     9.78478316E-25
  -1.78900007E-02     9.79683696E-25
  -1.78800002E-02     9.80825572E-25
  -1.78699996E-02     9.81903255E-25
  -1.78599991E-02     9.82903727E-25
  -1.78500004E-02     9.83800859E-25
  -1.78399999E-02     9.84559349E-25
  -1.78299993E-02     9.85143797E-25
  -1.78200006E-02     9.85529352E-25
  -1.78100001E-02     9.85710001E-25
  -1.77999996E-02     9.85702507E-25
  -1.77900009E-02     9.85543552E-25
  -1.77800003E-02     9.85280763E-25
  -1.77699998E-02     9.84961274E-25
  -1.77599993E-02     9.84619105E-25
  -1.77500006E-02     9.84267471E-25
  -1.77400000E-02     9.83897889E-25
  -1.77299995E-02     9.83485118E-25
  -1.77200008E-02     9.82998391E-25
  -1.77100003E-02     9.82414436E-25
  -1.76999997E-02     9.81728423E-25
  -1.76899992E-02     9.80959284E-25
  -1.76800005E-02     9.80147743E-25
  -1.76700000E-02     9.79348134E-25
  -1.76599994E-02     9.78614691E-25
  -1.76500008E-02     9.77989025E-25
  -1.76400002E-02     9.77488888E-25
  -1.76299997E-02     9.77105008E-25
  -1.76199991E-02     9.76804452E-25
  -1.76100004E-02     9.76539789E-25
  -1.75999999E-02     9.76262702E-25
  -1.75899994E-02     9.75935127E-25
  -1.75800007E-02     9.75538626E-25
  -1.75700001E-02     9.75076354E-25
  -1.75599996E-02     9.74569018E-25
  -1.75500009E-02     9.74046200E-25
  -1.75400004E-02     9.73536399E-25
  -1.75299998E-02     9.73058349E-25
  -1.75199993E-02     9.72616291E-25
  -1.75100006E-02     9.72200857E-25
  -1.75000001E-02     9.71794594E-25
  -1.74899995E-02     9.71379357E-25
  -1.74800009E-02     9.70943906E-25
  -1.74700003E-02     9.70488536E-25
  -1.74599998E-02     9.70025573E-25
  -1.74499992E-02     9.69575922E-25
  -1.74400005E-02     9.69162954E-25
  -1.74300000E-02     9.68806191E-25
  -1.74199995E-02     9.68516778E-25
  -1.74100008E-02     9.68295996E-25
  -1.74000002E-02     9.68138716E-25
  -1.73899997E-02     9.68037052E-25
  -1.73799992E-02     9.67987058E-25
  -1.73700005E-02     9.67992777E-25
  -1.73599999E-02     9.68066930E-25
  -1.73499994E-02     9.68228548E-25
  -1.73400007E-02     9.68497550E-25
  -1.73300002E-02     9.68888134E-25
  -1.73199996E-02     9.69403260E-25
  -1.73099991E-02     9.70032377E-25
  -1.73000004E-02     9.70752804E-25
  -1.72899999E-02     9.71534171E-25
  -1.72799993E-02     9.72345514E-25
  -1.72700007E-02     9.73161591E-25
  -1.72600001E-02     9.73966919E-25
  -1.72499996E-02     9.74756372E-25
  -1.72400009E-02     9.75531625E-25
  -1.72300003E-02     9.76296130E-25
  -1.72199998E-02     9.77048802E-25
  -1.72099993E-02     9.77780174E-25
  -1.72000006E-02     9.78471217E-25
  -1.71900000E-02     9.79097079E-25
  -1.71799995E-02     9.79632025E-25
  -1.71700008E-02     9.80057912E-25
  -1.71600003E-02     9.80368427E-25
  -1.71499997E-02     9.80573038E-25
  -1.71399992E-02     9.80694720E-25
  -1.71300005E-02     9.80765421E-25
  -1.71200000E-02     9.80817782E-25
  -1.71099994E-02     9.80878228E-25
  -1.71000008E-02     9.80961157E-25
  -1.70900002E-02     9.81066865E-25
  -1.70799997E-02     9.81183715E-25
  -1.70699991E-02     9.81293564E-25
  -1.70600004E-02     9.81378761E-25
  -1.70499999E-02     9.81427473E-25
  -1.70399994E-02     9.81437629E-25
  -1.70300007E-02     9.81417218E-25
  -1.70200001E-02     9.81381719E-25
  -1.70099996E-02     9.81348488E-25
  -1.70000009E-02     9.81333401E-25
  -1.69900004E-02     9.81346516E-25
  -1.69799998E-02     9.81392073E-25
  -1.69699993E-02     9.81469085E-25
  -1.69600006E-02     9.81573905E-25
  -1.69500001E-02     9.81703278E-25
  -1.69399995E-02     9.81854838E-25
  -1.69300009E-02     9.82026218E-25
  -1.69200003E-02     9.82212784E-25
  -1.69099998E-02     9.82405069E-25
  -1.68999992E-02     9.82586014E-25
  -1.68900006E-02     9.82732347E-25
  -1.68800000E-02     9.82817249E-25
  -1.68699995E-02     9.82816361E-25
  -1.68600008E-02     9.82713908E-25
  -1.68500002E-02     9.82508508E-25
  -1.68399997E-02     9.82214362E-25
  -1.68299992E-02     9.81859374E-25
  -1.68200005E-02     9.81478453E-25
  -1.68099999E-02     9.81104730E-25
  -1.67999994E-02     9.80760688E-25
  -1.67900007E-02     9.80451750E-25
  -1.67800002E-02     9.80165493E-25
  -1.67699996E-02     9.79876079E-25
  -1.67599991E-02     9.79553139E-25
  -1.67500004E-02     9.79172415E-25
  -1.67399999E-02     9.78725427E-25
  -1.67299993E-02     9.78224106E-25
  -1.67200007E-02     9.77698823E-25
  -1.67100001E-02     9.77191980E-25
  -1.66999996E-02     9.76745682E-25
  -1.66900009E-02     9.76390300E-25
  -1.66800003E-02     9.76135399E-25
  -1.66699998E-02     9.75967766E-25
  -1.66599993E-02     9.75854762E-25
  -1.66500006E-02     9.75754971E-25
  -1.66400000E-02     9.75630331E-25
  -1.66299995E-02     9.75458064E-25
  -1.66200008E-02     9.75237084E-25
  -1.66100003E-02     9.74987607E-25
  -1.65999997E-02     9.74744638E-25
  -1.65899992E-02     9.74545746E-25
  -1.65800005E-02     9.74418148E-25
  -1.65700000E-02     9.74369830E-25
  -1.65599994E-02     9.74386495E-25
  -1.65500008E-02     9.74435897E-25
  -1.65400002E-02     9.74478496E-25
  -1.65299997E-02     9.74480764E-25
  -1.65199991E-02     9.74426530E-25
  -1.65100005E-02     9.74323682E-25
  -1.64999999E-02     9.74202000E-25
  -1.64899994E-02     9.74103885E-25
  -1.64800007E-02     9.74071246E-25
  -1.64700001E-02     9.74131397E-25
  -1.64599996E-02     9.74286704E-25
  -1.64500009E-02     9.74513206E-25
  -1.64400004E-02     9.74767416E-25
  -1.64299998E-02     9.74998749E-25
  -1.64199993E-02     9.75165889E-25
  -1.64100006E-02     9.75250396E-25
  -1.64000001E-02     9.75263018E-25
  -1.63899995E-02     9.75241226E-25
  -1.63800009E-02     9.75238070E-25
  -1.63700003E-02     9.75306109E-25
  -1.63599998E-02     9.75481039E-25
  -1.63499992E-02     9.75770650E-25
  -1.63400006E-02     9.76152952E-25
  -1.63300000E-02     9.76583571E-25
  -1.63199995E-02     9.77011627E-25
  -1.63100008E-02     9.77397478E-25
  -1.63000003E-02     9.77727518E-25
  -1.62899997E-02     9.78020580E-25
  -1.62799992E-02     9.78323207E-25
  -1.62700005E-02     9.78695746E-25
  -1.62599999E-02     9.79191052E-25
  -1.62499994E-02     9.79835157E-25
  -1.62400007E-02     9.80613960E-25
  -1.62300002E-02     9.81471550E-25
  -1.62199996E-02     9.82320661E-25
  -1.62099991E-02     9.83063570E-25
  -1.62000004E-02     9.83615872E-25
  -1.61899999E-02     9.83927767E-25
  -1.61799993E-02     9.83995018E-25
  -1.61700007E-02     9.83856178E-25
  -1.61600001E-02     9.83577710E-25
  -1.61499996E-02     9.83229527E-25
  -1.61400009E-02     9.82860044E-25
  -1.61300004E-02     9.82477743E-25
  -1.61199998E-02     9.82044362E-25
  -1.61099993E-02     9.81483285E-25
  -1.61000006E-02     9.80700143E-25
  -1.60900000E-02     9.79609740E-25
  -1.60799995E-02     9.78161096E-25
  -1.60700008E-02     9.76352731E-25
  -1.60600003E-02     9.74234245E-25
  -1.60499997E-02     9.71892215E-25
  -1.60399992E-02     9.69425447E-25
  -1.60300005E-02     9.66916968E-25
  -1.60200000E-02     9.64411151E-25
  -1.60099994E-02     9.61902672E-25
  -1.60000008E-02     9.59340945E-25
  -1.59900002E-02     9.56649155E-25
  -1.59799997E-02     9.53751767E-25
  -1.59699991E-02     9.50601550E-25
  -1.59600005E-02     9.47199094E-25
  -1.59499999E-02     9.43597550E-25
  -1.59399994E-02     9.39891875E-25
  -1.59300007E-02     9.36196062E-25
  -1.59200002E-02     9.32614042E-25
  -1.59099996E-02     9.29215333E-25
  -1.59000009E-02     9.26020249E-25
  -1.58900004E-02     9.23001476E-25
  -1.58799998E-02     9.20100144E-25
  -1.58699993E-02     9.17251370E-25
  -1.58600006E-02     9.14411570E-25
  -1.58500001E-02     9.11577883E-25
  -1.58399995E-02     9.08795176E-25
  -1.58300009E-02     9.06146575E-25
  -1.58200003E-02     9.03731379E-25
  -1.58099998E-02     9.01636756E-25
  -1.57999992E-02     8.99912996E-25
  -1.57900006E-02     8.98559410E-25
  -1.57800000E-02     8.97525706E-25
  -1.57699995E-02     8.96729351E-25
  -1.57600008E-02     8.96082288E-25
  -1.57500003E-02     8.95520816E-25
  -1.57399997E-02     8.95026792E-25
  -1.57299992E-02     8.94635221E-25
  -1.57200005E-02     8.94424792E-25
  -1.57099999E-02     8.94493226E-25
  -1.56999994E-02     8.94926114E-25
  -1.56900007E-02     8.95767434E-25
  -1.56800002E-02     8.97002001E-25
  -1.56699996E-02     8.98554775E-25
  -1.56599991E-02     9.00307427E-25
  -1.56500004E-02     9.02128709E-25
  -1.56399999E-02     9.03908182E-25
  -1.56299993E-02     9.05584610E-25
  -1.56199997E-02     9.07158782E-25
  -1.56100001E-02     9.08688186E-25
  -1.55999996E-02     9.10264429E-25
  -1.55900000E-02     9.11979807E-25
  -1.55800004E-02     9.13894077E-25
  -1.55699998E-02     9.16010196E-25
  -1.55600002E-02     9.18267719E-25
  -1.55499997E-02     9.20555514E-25
  -1.55400001E-02     9.22739476E-25
  -1.55300004E-02     9.24698217E-25
  -1.55199999E-02     9.26354628E-25
  -1.55100003E-02     9.27695001E-25
  -1.54999997E-02     9.28769035E-25
  -1.54900001E-02     9.29670999E-25
  -1.54799996E-02     9.30508079E-25
  -1.54700000E-02     9.31365275E-25
  -1.54600004E-02     9.32277297E-25
  -1.54499998E-02     9.33216732E-25
  -1.54400002E-02     9.34101439E-25
  -1.54299997E-02     9.34819204E-25
  -1.54200001E-02     9.35262642E-25
  -1.54100005E-02     9.35363419E-25
  -1.53999999E-02     9.35114534E-25
  -1.53900003E-02     9.34574953E-25
  -1.53799998E-02     9.33853835E-25
  -1.53700002E-02     9.33080259E-25
  -1.53599996E-02     9.32364072E-25
  -1.53500000E-02     9.31764537E-25
  -1.53400004E-02     9.31270908E-25
  -1.53299998E-02     9.30804691E-25
  -1.53200002E-02     9.30241346E-25
  -1.53099997E-02     9.29444990E-25
  -1.53000001E-02     9.28306566E-25
  -1.52899995E-02     9.26774795E-25
  -1.52799999E-02     9.24869301E-25
  -1.52700003E-02     9.22674592E-25
  -1.52599998E-02     9.20315109E-25
  -1.52500002E-02     9.17919930E-25
  -1.52399996E-02     9.15587958E-25
  -1.52300000E-02     9.13362582E-25
  -1.52200004E-02     9.11225262E-25
  -1.52099999E-02     9.09106874E-25
  -1.52000003E-02     9.06916208E-25
  -1.51899997E-02     9.04572995E-25
  -1.51800001E-02     9.02038681E-25
  -1.51699996E-02     8.99332592E-25
  -1.51600000E-02     8.96530952E-25
  -1.51500003E-02     8.93747654E-25
  -1.51399998E-02     8.91102801E-25
  -1.51300002E-02     8.88689774E-25
  -1.51199996E-02     8.86550383E-25
  -1.51100000E-02     8.84664907E-25
  -1.51000004E-02     8.82961756E-25
  -1.50899999E-02     8.81342718E-25
  -1.50800003E-02     8.79715889E-25
  -1.50699997E-02     8.78026445E-25
  -1.50600001E-02     8.76276357E-25
  -1.50499996E-02     8.74526171E-25
  -1.50400000E-02     8.72878240E-25
  -1.50300004E-02     8.71446951E-25
  -1.50199998E-02     8.70324697E-25
  -1.50100002E-02     8.69553980E-25
  -1.49999997E-02     8.69113993E-25
  -1.49900001E-02     8.68926639E-25
  -1.49800004E-02     8.68879899E-25
  -1.49699999E-02     8.68861853E-25
  -1.49600003E-02     8.68795293E-25
  -1.49499997E-02     8.68662863E-25
  -1.49400001E-02     8.68514557E-25
  -1.49299996E-02     8.68455886E-25
  -1.49200000E-02     8.68619575E-25
  -1.49100004E-02     8.69128587E-25
  -1.48999998E-02     8.70063289E-25
  -1.48900002E-02     8.71439851E-25
  -1.48799997E-02     8.73207590E-25
  -1.48700001E-02     8.75265432E-25
  -1.48600005E-02     8.77491992E-25
  -1.48499999E-02     8.79780576E-25
  -1.48400003E-02     8.82068174E-25
  -1.48299998E-02     8.84350250E-25
  -1.48200002E-02     8.86676403E-25
  -1.48099996E-02     8.89129465E-25
  -1.48000000E-02     8.91793941E-25
  -1.47900004E-02     8.94723672E-25
  -1.47799999E-02     8.97919742E-25
  -1.47700002E-02     9.01323677E-25
  -1.47599997E-02     9.04830361E-25
  -1.47500001E-02     9.08314266E-25
  -1.47399995E-02     9.11664164E-25
  -1.47299999E-02     9.14811621E-25
  -1.47200003E-02     9.17748550E-25
  -1.47099998E-02     9.20524551E-25
  -1.47000002E-02     9.23226400E-25
  -1.46899996E-02     9.25945406E-25
  -1.46800000E-02     9.28741622E-25
  -1.46700004E-02     9.31616133E-25
  -1.46599999E-02     9.34500208E-25
  -1.46500003E-02     9.37264476E-25
  -1.46399997E-02     9.39746035E-25
  -1.46300001E-02     9.41786522E-25
  -1.46199996E-02     9.43268890E-25
  -1.46100000E-02     9.44144427E-25
  -1.46000003E-02     9.44440447E-25
  -1.45899998E-02     9.44248261E-25
  -1.45800002E-02     9.43693396E-25
  -1.45699997E-02     9.42898422E-25
  -1.45600000E-02     9.41948436E-25
  -1.45500004E-02     9.40868485E-25
  -1.45399999E-02     9.39621198E-25
  -1.45300003E-02     9.38122165E-25
  -1.45199997E-02     9.36270609E-25
  -1.45100001E-02     9.33984786E-25
  -1.44999996E-02     9.31230676E-25
  -1.44900000E-02     9.28036578E-25
  -1.44800004E-02     9.24489958E-25
  -1.44699998E-02     9.20715061E-25
  -1.44600002E-02     9.16841853E-25
  -1.44499997E-02     9.12973082E-25
  -1.44400001E-02     9.09160616E-25
  -1.44300004E-02     9.05398341E-25
  -1.44199999E-02     9.01633009E-25
  -1.44100003E-02     8.97788988E-25
  -1.43999998E-02     8.93801297E-25
  -1.43900001E-02     8.89643605E-25
  -1.43799996E-02     8.85345990E-25
  -1.43700000E-02     8.80994534E-25
  -1.43600004E-02     8.76713879E-25
  -1.43499998E-02     8.72638131E-25
  -1.43400002E-02     8.68879110E-25
  -1.43299997E-02     8.65500714E-25
  -1.43200001E-02     8.62508170E-25
  -1.43100005E-02     8.59853752E-25
  -1.42999999E-02     8.57459362E-25
  -1.42900003E-02     8.55246410E-25
  -1.42799998E-02     8.53165691E-25
  -1.42700002E-02     8.51217599E-25
  -1.42599996E-02     8.49456270E-25
  -1.42500000E-02     8.47975972E-25
  -1.42400004E-02     8.46885766E-25
  -1.42299999E-02     8.46277555E-25
  -1.42200002E-02     8.46199457E-25
  -1.42099997E-02     8.46640332E-25
  -1.42000001E-02     8.47532928E-25
  -1.41899996E-02     8.48770355E-25
  -1.41799999E-02     8.50235467E-25
  -1.41700003E-02     8.51830642E-25
  -1.41599998E-02     8.53501351E-25
  -1.41500002E-02     8.55246114E-25
  -1.41399996E-02     8.57109699E-25
  -1.41300000E-02     8.59163795E-25
  -1.41200004E-02     8.61478904E-25
  -1.41099999E-02     8.64098317E-25
  -1.41000003E-02     8.67021145E-25
  -1.40899997E-02     8.70198677E-25
  -1.40800001E-02     8.73546109E-25
  -1.40699996E-02     8.76964540E-25
  -1.40600000E-02     8.80366502E-25
  -1.40500003E-02     8.83696777E-25
  -1.40399998E-02     8.86942447E-25
  -1.40300002E-02     8.90128656E-25
  -1.40199997E-02     8.93302638E-25
  -1.40100000E-02     8.96509357E-25
  -1.40000004E-02     8.99769522E-25
  -1.39899999E-02     9.03063904E-25
  -1.39800003E-02     9.06331563E-25
  -1.39699997E-02     9.09480499E-25
  -1.39600001E-02     9.12409638E-25
  -1.39499996E-02     9.15032995E-25
  -1.39400000E-02     9.17300871E-25
  -1.39300004E-02     9.19210210E-25
  -1.39199998E-02     9.20801343E-25
  -1.39100002E-02     9.22142702E-25