  -2.19999999E-02     1.00000002E-24
  -2.19899993E-02     1.00000002E-24
  -2.19800007E-02     1.00000002E-24
  -2.19700001E-02     1.00000002E-24
  -2.19599996E-02     1.00000002E-24
  -2.19500009E-02     1.00000002E-24
  -2.19400004E-02     1.00000002E-24
  -2.19299998E-02     1.00000012E-24
  -2.19199993E-02     1.00000022E-24
  -2.19100006E-02     1.00000032E-24
  -2.19000001E-02     1.00000032E-24
  -2.18899995E-02     1.00000032E-24
  -2.18800008E-02     1.00000032E-24
  -2.18700003E-02     1.00000022E-24
  -2.18599997E-02     1.00000012E-24
  -2.18499992E-02     1.00000002E-24
  -2.18400005E-02     9.99999921E-25
  -2.18300000E-02     9.99999822E-25
  -2.18199994E-02     9.99999724E-25
  -2.18100008E-02     9.99999724E-25
  -2.18000002E-02     9.99999921E-25
  -2.17899997E-02     1.00000002E-24
  -2.17799991E-02     1.00000012E-24
  -2.17700005E-02     1.00000022E-24
  -2.17599999E-02     1.00000032E-24
  -2.17499994E-02     1.00000041E-24
  -2.17400007E-02     1.00000041E-24
  -2.17300002E-02     1.00000041E-24
  -2.17199996E-02     1.00000032E-24
  -2.17099991E-02     1.00000022E-24
  -2.17000004E-02     1.00000002E-24
  -2.16899998E-02     9.99999822E-25
  -2.16799993E-02     9.99999724E-25
  -2.16700006E-02     9.99999625E-25
  -2.16600001E-02     9.99999527E-25
  -2.16499995E-02     9.99999625E-25
  -2.16400009E-02     9.99999822E-25
  -2.16300003E-02     1.00000002E-24
  -2.16199998E-02     1.00000032E-24
  -2.16099992E-02     1.00000051E-24
  -2.16000006E-02     1.00000061E-24
  -2.15900000E-02     1.00000071E-24
  -2.15799995E-02     1.00000061E-24
  -2.15700008E-02     1.00000051E-24
  -2.15600003E-02     1.00000032E-24
  -2.15499997E-02     1.00000012E-24
  -2.15399992E-02     9.99999921E-25
  -2.15300005E-02     9.99999822E-25
  -2.15200000E-02     9.99999625E-25
  -2.15099994E-02     9.99999625E-25
  -2.15000007E-02     9.99999724E-25
  -2.14900002E-02     9.99999822E-25
  -2.14799996E-02     1.00000002E-24
  -2.14699991E-02     1.00000022E-24
  -2.14600004E-02     1.00000041E-24
  -2.14499999E-02     1.00000061E-24
  -2.14399993E-02     1.00000071E-24
  -2.14300007E-02     1.00000061E-24
  -2.14200001E-02     1.00000051E-24
  -2.14099996E-02     1.00000032E-24
  -2.14000009E-02     1.00000012E-24
  -2.13900004E-02     9.99999822E-25
  -2.13799998E-02     9.99999625E-25
  -2.13699993E-02     9.99999625E-25
  -2.13600006E-02     9.99999625E-25
  -2.13500001E-02     9.99999724E-25
  -2.13399995E-02     9.99999921E-25
  -2.13300008E-02     1.00000022E-24
  -2.13200003E-02     1.00000041E-24
  -2.13099997E-02     1.00000061E-24
  -2.12999992E-02     1.00000071E-24
  -2.12900005E-02     1.00000071E-24
  -2.12800000E-02     1.00000061E-24
  -2.12699994E-02     1.00000032E-24
  -2.12600008E-02     1.00000002E-24
  -2.12500002E-02     9.99999625E-25
  -2.12399997E-02     9.99999428E-25
  -2.12299991E-02     9.99999231E-25
  -2.12200005E-02     9.99999132E-25
  -2.12099999E-02     9.99999132E-25
  -2.11999994E-02     9.99999329E-25
  -2.11900007E-02     9.99999625E-25
  -2.11800002E-02     1.00000002E-24
  -2.11699996E-02     1.00000051E-24
  -2.11599991E-02     1.00000081E-24
  -2.11500004E-02     1.00000091E-24
  -2.11399999E-02     1.00000091E-24
  -2.11299993E-02     1.00000071E-24
  -2.11200006E-02     1.00000051E-24
  -2.11100001E-02     1.00000012E-24
  -2.10999995E-02     9.99999724E-25
  -2.10900009E-02     9.99999329E-25
  -2.10800003E-02     9.99999033E-25
  -2.10699998E-02     9.99999033E-25
  -2.10599992E-02     9.99999132E-25
  -2.10500006E-02     9.99999329E-25
  -2.10400000E-02     9.99999724E-25
  -2.10299995E-02     1.00000012E-24
  -2.10200008E-02     1.00000051E-24
  -2.10100003E-02     1.00000081E-24
  -2.09999997E-02     1.00000101E-24
  -2.09899992E-02     1.00000101E-24
  -2.09800005E-02     1.00000101E-24
  -2.09700000E-02     1.00000081E-24
  -2.09599994E-02     1.00000061E-24
  -2.09500007E-02     1.00000041E-24
  -2.09400002E-02     1.00000032E-24
  -2.09299996E-02     1.00000022E-24
  -2.09199991E-02     1.00000022E-24
  -2.09100004E-02     1.00000012E-24
  -2.08999999E-02     1.00000002E-24
  -2.08899993E-02     9.99999921E-25
  -2.08800007E-02     9.99999625E-25
  -2.08700001E-02     9.99999527E-25
  -2.08599996E-02     9.99999428E-25
  -2.08500009E-02     9.99999428E-25
  -2.08400004E-02     9.99999527E-25
  -2.08299998E-02     9.99999822E-25
  -2.08199993E-02     1.00000022E-24
  -2.08100006E-02     1.00000041E-24
  -2.08000001E-02     1.00000051E-24
  -2.07899995E-02     1.00000051E-24
  -2.07800008E-02     1.00000032E-24
  -2.07700003E-02     1.00000002E-24
  -2.07599998E-02     9.99999724E-25
  -2.07499992E-02     9.99999527E-25
  -2.07400005E-02     9.99999428E-25
  -2.07300000E-02     9.99999527E-25
  -2.07199994E-02     9.99999822E-25
  -2.07100008E-02     1.00000012E-24
  -2.07000002E-02     1.00000032E-24
  -2.06899997E-02     1.00000061E-24
  -2.06799991E-02     1.00000071E-24
  -2.06700005E-02     1.00000061E-24
  -2.06599999E-02     1.00000041E-24
  -2.06499994E-02     1.00000032E-24
  -2.06400007E-02     1.00000022E-24
  -2.06300002E-02     1.00000022E-24
  -2.06199996E-02     1.00000032E-24
  -2.06099991E-02     1.00000051E-24
  -2.06000004E-02     1.00000081E-24
  -2.05899999E-02     1.00000110E-24
  -2.05799993E-02     1.00000150E-24
  -2.05700006E-02     1.00000170E-24
  -2.05600001E-02     1.00000160E-24
  -2.05499995E-02     1.00000120E-24
  -2.05400009E-02     1.00000051E-24
  -2.05300003E-02     9.99999527E-25
  -2.05199998E-02     9.99998442E-25
  -2.05099992E-02     9.99997456E-25
  -2.05000006E-02     9.99996667E-25
  -2.04900000E-02     9.99996272E-25
  -2.04799995E-02     9.99996174E-25
  -2.04700008E-02     9.99996568E-25
  -2.04600003E-02     9.99997357E-25
  -2.04499997E-02     9.99998639E-25
  -2.04399992E-02     1.00000002E-24
  -2.04300005E-02     1.00000150E-24
  -2.04200000E-02     1.00000288E-24
  -2.04099994E-02     1.00000387E-24
  -2.04000007E-02     1.00000446E-24
  -2.03900002E-02     1.00000436E-24
  -2.03799997E-02     1.00000367E-24
  -2.03699991E-02     1.00000248E-24
  -2.03600004E-02     1.00000091E-24
  -2.03499999E-02     9.99999329E-25
  -2.03399993E-02     9.99997949E-25
  -2.03300007E-02     9.99996963E-25
  -2.03200001E-02     9.99996765E-25
  -2.03099996E-02     9.99997259E-25
  -2.03000009E-02     9.99998639E-25
  -2.02900004E-02     1.00000061E-24
  -2.02799998E-02     1.00000288E-24
  -2.02699993E-02     1.00000505E-24
  -2.02600006E-02     1.00000672E-24
  -2.02500001E-02     1.00000751E-24
  -2.02399995E-02     1.00000722E-24
  -2.02300008E-02     1.00000574E-24
  -2.02200003E-02     1.00000327E-24
  -2.02099998E-02     1.00000022E-24
  -2.01999992E-02     9.99996864E-25
  -2.01900005E-02     9.99993511E-25
  -2.01800000E-02     9.99990750E-25
  -2.01699995E-02     9.99988680E-25
  -2.01600008E-02     9.99987496E-25
  -2.01500002E-02     9.99987496E-25
  -2.01399997E-02     9.99988482E-25
  -2.01299991E-02     9.99990455E-25
  -2.01200005E-02     9.99993117E-25
  -2.01099999E-02     9.99996174E-25
  -2.00999994E-02     9.99999428E-25
  -2.00900007E-02     1.00000258E-24
  -2.00800002E-02     1.00000554E-24
  -2.00699996E-02     1.00000811E-24
  -2.00599991E-02     1.00000998E-24
  -2.00500004E-02     1.00001126E-24
  -2.00399999E-02     1.00001166E-24
  -2.00299993E-02     1.00001106E-24
  -2.00200006E-02     1.00000958E-24
  -2.00100001E-02     1.00000742E-24
  -1.99999996E-02     1.00000465E-24
  -1.99900009E-02     1.00000170E-24
  -1.99800003E-02     9.99998935E-25
  -1.99699998E-02     9.99996667E-25
  -1.99599992E-02     9.99995188E-25
  -1.99500006E-02     9.99994596E-25
  -1.99400000E-02     9.99995089E-25
  -1.99299995E-02     9.99996765E-25
  -1.99200008E-02     9.99999428E-25
  -1.99100003E-02     1.00000288E-24
  -1.98999997E-02     1.00000682E-24
  -1.98899992E-02     1.00001077E-24
  -1.98800005E-02     1.00001422E-24
  -1.98700000E-02     1.00001678E-24
  -1.98599994E-02     1.00001797E-24
  -1.98500007E-02     1.00001757E-24
  -1.98400002E-02     1.00001501E-24
  -1.98299997E-02     1.00001047E-24
  -1.98199991E-02     1.00000387E-24
  -1.98100004E-02     9.99995484E-25
  -1.97999999E-02     9.99985820E-25
  -1.97899994E-02     9.99975565E-25
  -1.97800007E-02     9.99965507E-25
  -1.97700001E-02     9.99956534E-25
  -1.97599996E-02     9.99949532E-25
  -1.97500009E-02     9.99945292E-25
  -1.97400004E-02     9.99944208E-25
  -1.97299998E-02     9.99946476E-25
  -1.97199993E-02     9.99952096E-25
  -1.97100006E-02     9.99960478E-25
  -1.97000001E-02     9.99971128E-25
  -1.96899995E-02     9.99983256E-25
  -1.96800008E-02     9.99996174E-25
  -1.96700003E-02     1.00000909E-24
  -1.96599998E-02     1.00002142E-24
  -1.96499992E-02     1.00003236E-24
  -1.96400005E-02     1.00004222E-24
  -1.96300000E-02     1.00005061E-24
  -1.96199995E-02     1.00005780E-24
  -1.96100008E-02     1.00006402E-24
  -1.96000002E-02     1.00006974E-24
  -1.95899997E-02     1.00007536E-24
  -1.95799991E-02     1.00008137E-24
  -1.95700005E-02     1.00008788E-24
  -1.95599999E-02     1.00009478E-24
  -1.95499994E-02     1.00010208E-24
  -1.95400007E-02     1.00010888E-24
  -1.95300002E-02     1.00011440E-24
  -1.95199996E-02     1.00011756E-24
  -1.95099991E-02     1.00011657E-24
  -1.95000004E-02     1.00010987E-24
  -1.94899999E-02     1.00009587E-24
  -1.94799993E-02     1.00007328E-24
  -1.94700006E-02     1.00004104E-24
  -1.94600001E-02     9.99998935E-25
  -1.94499996E-02     9.99947166E-25
  -1.94400009E-02     9.99886719E-25
  -1.94300003E-02     9.99819568E-25
  -1.94199998E-02     9.99748274E-25
  -1.94099993E-02     9.99675896E-25
  -1.94000006E-02     9.99606181E-25
  -1.93900000E-02     9.99543170E-25
  -1.93799995E-02     9.99490613E-25
  -1.93700008E-02     9.99452156E-25
  -1.93600003E-02     9.99431054E-25
  -1.93499997E-02     9.99429969E-25
  -1.93399992E-02     9.99450874E-25
  -1.93300005E-02     9.99494951E-25
  -1.93200000E-02     9.99562498E-25
  -1.93099994E-02     9.99653217E-25
  -1.93000007E-02     9.99766122E-25
  -1.92900002E-02     9.99899440E-25
  -1.92799997E-02     1.00005120E-24
  -1.92699991E-02     1.00021863E-24
  -1.92600004E-02     1.00039869E-24
  -1.92499999E-02     1.00058831E-24
  -1.92399994E-02     1.00078395E-24
  -1.92300007E-02     1.00098156E-24
  -1.92200001E-02     1.00117641E-24
  -1.92099996E-02     1.00136347E-24
  -1.92000009E-02     1.00153672E-24
  -1.91900004E-02     1.00168917E-24
  -1.91799998E-02     1.00181292E-24
  -1.91699993E-02     1.00189871E-24
  -1.91600006E-02     1.00193667E-24
  -1.91500001E-02     1.00191577E-24
  -1.91399995E-02     1.00182426E-24
  -1.91300008E-02     1.00165012E-24
  -1.91200003E-02     1.00138141E-24
  -1.91099998E-02     1.00100621E-24
  -1.90999992E-02     1.00051367E-24
  -1.90900005E-02     9.99894312E-25
  -1.90800000E-02     9.99139865E-25
  -1.90699995E-02     9.98243818E-25
  -1.90600008E-02     9.97201634E-25
  -1.90500002E-02     9.96010947E-25
  -1.90399997E-02     9.94671461E-25
  -1.90299992E-02     9.93184853E-25
  -1.90200005E-02     9.91554869E-25
  -1.90099999E-02     9.89787130E-25
  -1.89999994E-02     9.87889032E-25
  -1.89900007E-02     9.85869844E-25
  -1.89800002E-02     9.83739821E-25
  -1.89699996E-02     9.81510993E-25
  -1.89599991E-02     9.79196574E-25
  -1.89500004E-02     9.76810664E-25
  -1.89399999E-02     9.74369140E-25
  -1.89299993E-02     9.71888468E-25
  -1.89200006E-02     9.69386399E-25
  -1.89100001E-02     9.66881272E-25
  -1.88999996E-02     9.64392416E-25
  -1.88900009E-02     9.61939749E-25
  -1.88800003E-02     9.59543682E-25
  -1.88699998E-02     9.57224826E-25
  -1.88599993E-02     9.55003985E-25
  -1.88500006E-02     9.52901474E-25
  -1.88400000E-02     9.50937111E-25
  -1.88299995E-02     9.49129634E-25
  -1.88200008E-02     9.47496495E-25
  -1.88100003E-02     9.46053273E-25
  -1.87999997E-02     9.44813381E-25
  -1.87899992E-02     9.43788158E-25
  -1.87800005E-02     9.42985985E-25
  -1.87700000E-02     9.42412582E-25
  -1.87599994E-02     9.42070906E-25
  -1.87500007E-02     9.41961156E-25
  -1.87400002E-02     9.42080767E-25
  -1.87299997E-02     9.42425105E-25
  -1.87199991E-02     9.42987168E-25
  -1.87100004E-02     9.43758280E-25
  -1.86999999E-02     9.44728086E-25
  -1.86899994E-02     9.45884852E-25
  -1.86800007E-02     9.47215857E-25
  -1.86700001E-02     9.48707199E-25
  -1.86599996E-02     9.50344381E-25
  -1.86500009E-02     9.52112416E-25
  -1.86400004E-02     9.53995426E-25
  -1.86299998E-02     9.55976848E-25
  -1.86199993E-02     9.58039916E-25
  -1.86100006E-02     9.60166883E-25
  -1.86000001E-02     9.62339701E-25
  -1.85899995E-02     9.64539834E-25
  -1.85800008E-02     9.66748152E-25
  -1.85700003E-02     9.68945721E-25
  -1.85599998E-02     9.71113314E-25
  -1.85499992E-02     9.73232194E-25
  -1.85400005E-02     9.75284021E-25
  -1.85300000E-02     9.77250947E-25
  -1.85199995E-02     9.79116702E-25
  -1.85100008E-02     9.80865804E-25
  -1.85000002E-02     9.82484251E-25
  -1.84899997E-02     9.83959914E-25
  -1.84799992E-02     9.85282242E-25
  -1.84700005E-02     9.86442853E-25
  -1.84599999E-02     9.87434550E-25
  -1.84499994E-02     9.88252500E-25
  -1.84400007E-02     9.88893252E-25
  -1.84300002E-02     9.89354440E-25
  -1.84199996E-02     9.89635373E-25
  -1.84099991E-02     9.89736150E-25
  -1.84000004E-02     9.89657461E-25
  -1.83899999E-02     9.89400884E-25
  -1.83799993E-02     9.88968293E-25
  -1.83700006E-02     9.88362349E-25
  -1.83600001E-02     9.87585913E-25
  -1.83499996E-02     9.86642632E-25
  -1.83400009E-02     9.85537241E-25
  -1.83300003E-02     9.84275063E-25
  -1.83199998E-02     9.82862805E-25
  -1.83099993E-02     9.81308749E-25
  -1.83000006E-02     9.79622165E-25
  -1.82900000E-02     9.77814194E-25
  -1.82799995E-02     9.75897755E-25
  -1.82700008E-02     9.73886850E-25
  -1.82600003E-02     9.71797453E-25
  -1.82499997E-02     9.69646427E-25
  -1.82399992E-02     9.67451323E-25
  -1.82300005E-02     9.65229890E-25
  -1.82200000E-02     9.63000274E-25
  -1.82099994E-02     9.60779532E-25
  -1.82000007E-02     9.58584230E-25
  -1.81900002E-02     9.56429555E-25
  -1.81799997E-02     9.54329608E-25
  -1.81699991E-02     9.52296910E-25
  -1.81600004E-02     9.50342409E-25
  -1.81499999E-02     9.48475964E-25
  -1.81399994E-02     9.46706056E-25
  -1.81300007E-02     9.45040376E-25
  -1.81200001E-02     9.43485827E-25
  -1.81099996E-02     9.42048424E-25
  -1.81000009E-02     9.40733787E-25
  -1.80900004E-02     9.39546354E-25
  -1.80799998E-02     9.38489971E-25
  -1.80699993E-02     9.37567004E-25
  -1.80600006E-02     9.36778537E-25
  -1.80500001E-02     9.36123881E-25
  -1.80399995E-02     9.35600571E-25
  -1.80300009E-02     9.35204168E-25
  -1.80200003E-02     9.34928165E-25
  -1.80099998E-02     9.34764378E-25
  -1.79999992E-02     9.34703044E-25
  -1.79900005E-02     9.34733120E-25
  -1.79800000E-02     9.34842673E-25
  -1.79699995E-02     9.35019476E-25
  -1.79600008E-02     9.35251697E-25
  -1.79500002E-02     9.35527798E-25
  -1.79399997E-02     9.35838116E-25
  -1.79299992E-02     9.36174073E-25
  -1.79200005E-02     9.36529849E-25
  -1.79099999E-02     9.36901205E-25
  -1.78999994E-02     9.37286465E-25
  -1.78900007E-02     9.37686122E-25
  -1.78800002E-02     9.38102640E-25
  -1.78699996E-02     9.38540064E-25
  -1.78599991E-02     9.39003519E-25
  -1.78500004E-02     9.39498234E-25
  -1.78399999E-02     9.40029630E-25
  -1.78299993E-02     9.40602540E-25
  -1.78200006E-02     9.41220120E-25
  -1.78100001E-02     9.41884932E-25
  -1.77999996E-02     9.42597077E-25
  -1.77900009E-02     9.43355369E-25
  -1.77800003E-02     9.44156753E-25
  -1.77699998E-02     9.44996397E-25
  -1.77599993E-02     9.45868384E-25
  -1.77500006E-02     9.46765516E-25
  -1.77400000E-02     9.47679412E-25
  -1.77299995E-02     9.48601393E-25
  -1.77200008E-02     9.49522092E-25
  -1.77100003E-02     9.50432043E-25
  -1.76999997E-02     9.51321287E-25
  -1.76899992E-02     9.52180258E-25
  -1.76800005E-02     9.52999095E-25
  -1.76700000E-02     9.53768826E-25
  -1.76599994E-02     9.54480477E-25
  -1.76500008E-02     9.55125963E-25
  -1.76400002E-02     9.55698084E-25
  -1.76299997E-02     9.56190629E-25
  -1.76199991E-02     9.56598470E-25
  -1.76100004E-02     9.56917367E-25
  -1.75999999E-02     9.57144559E-25
  -1.75899994E-02     9.57278074E-25
  -1.75800007E-02     9.57317221E-25
  -1.75700001E-02     9.57262297E-25
  -1.75599996E-02     9.57114484E-25
  -1.75500009E-02     9.56875853E-25
  -1.75400004E-02     9.56549659E-25
  -1.75299998E-02     9.56140241E-25
  -1.75199993E-02     9.55653020E-25
  -1.75100006E-02     9.55095000E-25
  -1.75000001E-02     9.54474561E-25
  -1.74899995E-02     9.53801367E-25
  -1.74800009E-02     9.53086955E-25
  -1.74700003E-02     9.52343848E-25
  -1.74599998E-02     9.51585259E-25
  -1.74499992E-02     9.50824896E-25
  -1.74400005E-02     9.50076464E-25
  -1.74300000E-02     9.49352586E-25
  -1.74199995E-02     9.48664699E-25
  -1.74100008E-02     9.48022172E-25
  -1.74000002E-02     9.47432202E-25
  -1.73899997E-02     9.46899327E-25
  -1.73799992E-02     9.46425419E-25
  -1.73700005E-02     9.46009689E-25
  -1.73599999E-02     9.45648982E-25
  -1.73499994E-02     9.45338566E-25
  -1.73400007E-02     9.45072226E-25
  -1.73300002E-02     9.44842865E-25
  -1.73199996E-02     9.44643086E-25
  -1.73099991E-02     9.44465296E-25
  -1.73000004E-02     9.44302988E-25
  -1.72899999E-02     9.44150245E-25
  -1.72799993E-02     9.44002235E-25
  -1.72700007E-02     9.43855211E-25
  -1.72600001E-02     9.43706708E-25
  -1.72499996E-02     9.43554754E-25
  -1.72400009E-02     9.43398264E-25
  -1.72300003E-02     9.43236646E-25
  -1.72199998E-02     9.43068717E-25
  -1.72099993E-02     9.42893688E-25
  -1.72000006E-02     9.42709982E-25
  -1.71900000E-02     9.42515725E-25
  -1.71799995E-02     9.42308847E-25
  -1.71700008E-02     9.42087078E-25
  -1.71600003E-02     9.41848645E-25
  -1.71499997E-02     9.41592857E-25
  -1.71399992E-02     9.41320601E-25
  -1.71300005E-02     9.41034738E-25
  -1.71200000E-02     9.40740690E-25
  -1.71099994E-02     9.40446445E-25
  -1.71000008E-02     9.40162652E-25
  -1.70900002E-02     9.39902032E-25
  -1.70799997E-02     9.39678883E-25
  -1.70699991E-02     9.39508095E-25
  -1.70600004E-02     9.39404359E-25
  -1.70499999E-02     9.39380989E-25
  -1.70399994E-02     9.39448634E-25
  -1.70300007E-02     9.39614295E-25
  -1.70200001E-02     9.39881324E-25
  -1.70099996E-02     9.40248243E-25
  -1.70000009E-02     9.40709431E-25
  -1.69900004E-02     9.41254731E-25
  -1.69799998E-02     9.41870832E-25
  -1.69699993E-02     9.42541363E-25
  -1.69600006E-02     9.43248183E-25
  -1.69500001E-02     9.43972357E-25
  -1.69399995E-02     9.44694559E-25
  -1.69300009E-02     9.45396645E-25
  -1.69200003E-02     9.46062148E-25
  -1.69099998E-02     9.46676375E-25
  -1.68999992E-02     9.47227296E-25
  -1.68900006E-02     9.47705740E-25
  -1.68800000E-02     9.48105101E-25
  -1.68699995E-02     9.48422124E-25
  -1.68600008E-02     9.48656021E-25
  -1.68500002E-02     9.48808863E-25
  -1.68399997E-02     9.48885383E-25
  -1.68299992E-02     9.48892285E-25
  -1.68200005E-02     9.48838347E-25
  -1.68099999E-02     9.48733527E-25
  -1.67999994E-02     9.48589264E-25
  -1.67900007E-02     9.48417095E-25
  -1.67800002E-02     9.48228755E-25
  -1.67699996E-02     9.48035878E-25
  -1.67599991E-02     9.47849115E-25
  -1.67500004E-02     9.47678031E-25
  -1.67399999E-02     9.47531303E-25
  -1.67299993E-02     9.47416129E-25
  -1.67200007E-02     9.47338229E-25
  -1.67100001E-02     9.47302040E-25
  -1.66999996E-02     9.47310718E-25
  -1.66900009E-02     9.47366332E-25
  -1.66800003E-02     9.47469575E-25
  -1.66699998E-02     9.47620050E-25
  -1.66599993E-02     9.47816082E-25
  -1.66500006E-02     9.48054219E-25
  -1.66400000E-02     9.48330321E-25
  -1.66299995E-02     9.48638765E-25
  -1.66200008E-02     9.48972848E-25
  -1.66100003E-02     9.49324778E-25
  -1.65999997E-02     9.49685781E-25
  -1.65899992E-02     9.50046783E-25
  -1.65800005E-02     9.50398221E-25
  -1.65700000E-02     9.50730627E-25
  -1.65599994E-02     9.51035127E-25
  -1.65500008E-02     9.51303833E-25
  -1.65400002E-02     9.51529940E-25
  -1.65299997E-02     9.51708420E-25
  -1.65199991E-02     9.51836018E-25
  -1.65100005E-02     9.51911749E-25
  -1.64999999E-02     9.51937091E-25
  -1.64899994E-02     9.51915693E-25
  -1.64800007E-02     9.51854162E-25
  -1.64700001E-02     9.51761372E-25
  -1.64599996E-02     9.51648072E-25
  -1.64500009E-02     9.51527179E-25
  -1.64400004E-02     9.51412597E-25
  -1.64299998E-02     9.51318624E-25
  -1.64199993E-02     9.51259755E-25
  -1.64100006E-02     9.51249007E-25
  -1.64000001E-02     9.51297818E-25
  -1.63899995E-02     9.51415260E-25
  -1.63800009E-02     9.51607643E-25
  -1.63700003E-02     9.51878222E-25
  -1.63599998E-02     9.52227293E-25
  -1.63499992E-02     9.52652785E-25
  -1.63400006E-02     9.53150458E-25
  -1.63300000E-02     9.53715184E-25
  -1.63199995E-02     9.54341046E-25
  -1.63100008E-02     9.55022523E-25
  -1.63000003E-02     9.55754784E-25
  -1.62899997E-02     9.56533981E-25
  -1.62799992E-02     9.57356664E-25
  -1.62700005E-02     9.58219678E-25
  -1.62599999E-02     9.59120064E-25
  -1.62499994E-02     9.60053484E-25
  -1.62400007E-02     9.61014119E-25
  -1.62300002E-02     9.61993786E-25
  -1.62199996E-02     9.62981933E-25
  -1.62099991E-02     9.63965445E-25
  -1.62000004E-02     9.64929630E-25
  -1.61899999E-02     9.65858415E-25
  -1.61799993E-02     9.66736023E-25
  -1.61700007E-02     9.67547958E-25
  -1.61600001E-02     9.68282191E-25
  -1.61499996E-02     9.68930043E-25
  -1.61400009E-02     9.69487471E-25
  -1.61300004E-02     9.69954477E-25
  -1.61199998E-02     9.70336187E-25
  -1.61099993E-02     9.70641575E-25
  -1.61000006E-02     9.70883459E-25
  -1.60900000E-02     9.71076434E-25
  -1.60799995E-02     9.71237066E-25
  -1.60700008E-02     9.71381822E-25
  -1.60600003E-02     9.71526085E-25
  -1.60499997E-02     9.71683562E-25
  -1.60399992E-02     9.71865690E-25
  -1.60300005E-02     9.72080950E-25
  -1.60200000E-02     9.72334569E-25
  -1.60099994E-02     9.72628913E-25
  -1.60000008E-02     9.72964277E-25
  -1.59900002E-02     9.73338493E-25
  -1.59799997E-02     9.73748306E-25
  -1.59699991E-02     9.74189575E-25
  -1.59600005E-02     9.74658257E-25
  -1.59499999E-02     9.75150507E-25
  -1.59399994E-02     9.75663266E-25
  -1.59300007E-02     9.76193874E-25
  -1.59200002E-02     9.76740357E-25
  -1.59099996E-02     9.77299955E-25
  -1.59000009E-02     9.77869217E-25
  -1.58900004E-02     9.78443311E-25
  -1.58799998E-02     9.79015038E-25
  -1.58699993E-02     9.79574537E-25
  -1.58600006E-02     9.80108793E-25
  -1.58500001E-02     9.80602620E-25
  -1.58399995E-02     9.81038367E-25
  -1.58300009E-02     9.81397693E-25
  -1.58200003E-02     9.81662356E-25
  -1.58099998E-02     9.81815691E-25
  -1.57999992E-02     9.81844189E-25
  -1.57900006E-02     9.81739467E-25
  -1.57800000E-02     9.81498076E-25
  -1.57699995E-02     9.81123170E-25
  -1.57600008E-02     9.80623624E-25
  -1.57500003E-02     9.80014623E-25
  -1.57399997E-02     9.79315495E-25
  -1.57299992E-02     9.78548821E-25
  -1.57200005E-02     9.77738956E-25
  -1.57099999E-02     9.76910159E-25
  -1.56999994E-02     9.76084814E-25
  -1.56900007E-02     9.75282838E-25
  -1.56800002E-02     9.74520601E-25
  -1.56699996E-02     9.73810626E-25
  -1.56599991E-02     9.73161985E-25
  -1.56500004E-02     9.72581088E-25
  -1.56399999E-02     9.72072076E-25
  -1.56299993E-02     9.71637610E-25
  -1.56199997E-02     9.71279763E-25
  -1.56100001E-02     9.71000112E-25
  -1.55999996E-02     9.70800530E-25
  -1.55900000E-02     9.70682004E-25
  -1.55800004E-02     9.70644730E-25
  -1.55699998E-02     9.70687625E-25
  -1.55600002E-02     9.70807531E-25
  -1.55499997E-02     9.70999027E-25
  -1.55400001E-02     9.71254323E-25
  -1.55300004E-02     9.71563359E-25
  -1.55199999E-02     9.71914205E-25
  -1.55100003E-02     9.72294337E-25
  -1.54999997E-02     9.72690247E-25
  -1.54900001E-02     9.73089114E-25
  -1.54799996E-02     9.73479699E-25
  -1.54700000E-02     9.73852535E-25
  -1.54600004E-02     9.74200324E-25
  -1.54499998E-02     9.74518530E-25
  -1.54400002E-02     9.74805479E-25
  -1.54299997E-02     9.75061464E-25
  -1.54200001E-02     9.75289346E-25
  -1.54100005E-02     9.75493562E-25
  -1.53999999E-02     9.75679734E-25
  -1.53900003E-02     9.75854072E-25
  -1.53799998E-02     9.76023085E-25
  -1.53700002E-02     9.76192789E-25
  -1.53599996E-02     9.76368212E-25
  -1.53500000E-02     9.76553792E-25
  -1.53400004E-02     9.76751796E-25
  -1.53299998E-02     9.76963605E-25
  -1.53200002E-02     9.77189120E-25
  -1.53099997E-02     9.77427554E-25
  -1.53000001E-02     9.77677129E-25
  -1.52899995E-02     9.77935974E-25
  -1.52799999E-02     9.78202018E-25
  -1.52700003E-02     9.78473189E-25
  -1.52599998E-02     9.78747712E-25
  -1.52500002E-02     9.79023715E-25
  -1.52399996E-02     9.79299718E-25
  -1.52300000E-02     9.79573748E-25
  -1.52200004E-02     9.79844032E-25
  -1.52099999E-02     9.80108300E-25
  -1.52000003E-02     9.80364187E-25
  -1.51899997E-02     9.80609128E-25
  -1.51800001E-02     9.80840758E-25
  -1.51699996E-02     9.81056905E-25
  -1.51600000E-02     9.81256389E-25
  -1.51500003E-02     9.81438911E-25
  -1.51399998E-02     9.81605361E-25
  -1.51300002E-02     9.81758104E-25
  -1.51199996E-02     9.81900494E-25
  -1.51100000E-02     9.82037164E-25
  -1.51000004E-02     9.82172848E-25
  -1.50899999E-02     9.82312673E-25
  -1.50800003E-02     9.82459993E-25
  -1.50699997E-02     9.82617371E-25
  -1.50600001E-02     9.82784511E-25
  -1.50499996E-02     9.82958356E-25
  -1.50400000E-02     9.83132793E-25
  -1.50300004E-02     9.83298848E-25
  -1.50199998E-02     9.83444985E-25
  -1.50100002E-02     9.83558482E-25
  -1.49999997E-02     9.83625634E-25
  -1.49900001E-02     9.83633522E-25
  -1.49800004E-02     9.83570709E-25
  -1.49699999E-02     9.83428419E-25
  -1.49600003E-02     9.83201029E-25
  -1.49499997E-02     9.82886471E-25
  -1.49400001E-02     9.82485730E-25
  -1.49299996E-02     9.82003045E-25
  -1.49200000E-02     9.81444729E-25
  -1.49100004E-02     9.80818472E-25
  -1.48999998E-02     9.80132558E-25
  -1.48900002E-02     9.79395170E-25
  -1.48799997E-02     9.78613409E-25
  -1.48700001E-02     9.77793881E-25
  -1.48600005E-02     9.76942108E-25
  -1.48499999E-02     9.76062528E-25
  -1.48400003E-02     9.75159776E-25
  -1.48299998E-02     9.74238386E-25
  -1.48200002E-02     9.73303882E-25
  -1.48099996E-02     9.72362968E-25
  -1.48000000E-02     9.71423730E-25
  -1.47900004E-02     9.70496129E-25
  -1.47799999E-02     9.69591108E-25
  -1.47700002E-02     9.68720797E-25
  -1.47599997E-02     9.67897128E-25
  -1.47500001E-02     9.67131440E-25
  -1.47399995E-02     9.66433199E-25
  -1.47299999E-02     9.65809802E-25
  -1.47200003E-02     9.65265488E-25
  -1.47099998E-02     9.64801440E-25
  -1.47000002E-02     9.64415490E-25
  -1.46899996E-02     9.64102707E-25
  -1.46800000E-02     9.63855300E-25
  -1.46700004E-02     9.63664297E-25
  -1.46599999E-02     9.63519443E-25
  -1.46500003E-02     9.63410777E-25
  -1.46399997E-02     9.63328736E-25
  -1.46300001E-02     9.63265035E-25
  -1.46199996E-02     9.63213266E-25
  -1.46100000E-02     9.63168597E-25
  -1.46000003E-02     9.63128365E-25
  -1.45899998E-02     9.63091584E-25
  -1.45800002E-02     9.63059142E-25
  -1.45699997E-02     9.63033209E-25
  -1.45600000E-02     9.63016938E-25
  -1.45500004E-02     9.63014375E-25
  -1.45399999E-02     9.63029264E-25
  -1.45300003E-02     9.63065256E-25
  -1.45199997E-02     9.63124618E-25
  -1.45100001E-02     9.63208434E-25
  -1.44999996E-02     9.63316311E-25
  -1.44900000E-02     9.63446276E-25
  -1.44800004E-02     9.63595075E-25
  -1.44699998E-02     9.63757975E-25
  -1.44600002E-02     9.63929453E-25
  -1.44499997E-02     9.64104186E-25
  -1.44400001E-02     9.64276651E-25
  -1.44300004E-02     9.64442213E-25
  -1.44199999E-02     9.64597520E-25
  -1.44100003E-02     9.64740304E-25
  -1.43999998E-02     9.64869677E-25
  -1.43900001E-02     9.64986428E-25
  -1.43799996E-02     9.65092234E-25
  -1.43700000E-02     9.65190546E-25
  -1.43600004E-02     9.65285604E-25
  -1.43499998E-02     9.65382831E-25
  -1.43400002E-02     9.65488242E-25
  -1.43299997E-02     9.65608544E-25
  -1.43200001E-02     9.65750440E-25
  -1.43100005E-02     9.65920440E-25
  -1.42999999E-02     9.66124163E-25
  -1.42900003E-02     9.66366245E-25
  -1.42799998E-02     9.66649643E-25
  -1.42700002E-02     9.66975541E-25
  -1.42599996E-02     9.67342460E-25
  -1.42500000E-02     9.67746653E-25
  -1.42400004E-02     9.68181808E-25
  -1.42299999E-02     9.68638854E-25
  -1.42200002E-02     9.69106452E-25
  -1.42099997E-02     9.69570893E-25
  -1.42000001E-02     9.70017783E-25
  -1.41899996E-02     9.70432231E-25
  -1.41799999E-02     9.70800530E-25
  -1.41700003E-02     9.71110651E-25
  -1.41599998E-02     9.71354409E-25
  -1.41500002E-02     9.71527860E-25
  -1.41399996E-02     9.71632088E-25
  -1.41300000E-02     9.71673011E-25
  -1.41200004E-02     9.71661178E-25
  -1.41099999E-02     9.71610197E-25
  -1.41000003E-02     9.71534960E-25
  -1.40899997E-02     9.71449368E-25
  -1.40800001E-02     9.71364270E-25
  -1.40699996E-02     9.71285483E-25
  -1.40600000E-02     9.71212710E-25
  -1.40500003E-02     9.71138853E-25
  -1.40399998E-02     9.71051290E-25
  -1.40300002E-02     9.70932467E-25
  -1.40199997E-02     9.70762961E-25
  -1.40100000E-02     9.70523640E-25
  -1.40000004E-02     9.70198827E-25
  -1.39899999E-02     9.69778758E-25
  -1.39800003E-02     9.69261364E-25
  -1.39699997E-02     9.68653547E-25
  -1.39600001E-02     9.67971379E-25
  -1.39499996E-02     9.67238330E-25
  -1.39400000E-02     9.66484081E-25
  -1.39300004E-02     9.65741565E-25
  -1.39199998E-02     9.65044114E-25
  -1.39100002E-02     9.64421801E-25