  -2.19999999E-02     1.00000002E-24
  -2.19899993E-02     1.00000002E-24
  -2.19800007E-02     1.00000002E-24
  -2.19700001E-02     1.00000002E-24
  -2.19599996E-02     1.00000002E-24
  -2.19500009E-02     1.00000002E-24
  -2.19400004E-02     1.00000002E-24
  -2.19299998E-02     1.00000002E-24
  -2.19199993E-02     1.00000002E-24
  -2.19100006E-02     1.00000002E-24
  -2.19000001E-02     1.00000002E-24
  -2.18899995E-02     1.00000002E-24
  -2.18800008E-02     1.00000002E-24
  -2.18700003E-02     1.00000002E-24
  -2.18599997E-02     1.00000002E-24
  -2.18499992E-02     1.00000002E-24
  -2.18400005E-02     1.00000002E-24
  -2.18300000E-02     1.00000002E-24
  -2.18199994E-02     1.00000002E-24
  -2.18100008E-02     1.00000002E-24
  -2.18000002E-02     1.00000002E-24
  -2.17899997E-02     1.00000002E-24
  -2.17799991E-02     1.00000002E-24
  -2.17700005E-02     1.00000002E-24
  -2.17599999E-02     1.00000002E-24
  -2.17499994E-02     1.00000002E-24
  -2.17400007E-02     1.00000002E-24
  -2.17300002E-02     1.00000002E-24
  -2.17199996E-02     1.00000002E-24
  -2.17099991E-02     1.00000002E-24
  -2.17000004E-02     1.00000002E-24
  -2.16899998E-02     1.00000002E-24
  -2.16799993E-02     1.00000002E-24
  -2.16700006E-02     1.00000002E-24
  -2.16600001E-02     1.00000002E-24
  -2.16499995E-02     1.00000002E-24
  -2.16400009E-02     1.00000002E-24
  -2.16300003E-02     1.00000002E-24
  -2.16199998E-02     1.00000002E-24
  -2.16099992E-02     1.00000002E-24
  -2.16000006E-02     1.00000002E-24
  -2.15900000E-02     1.00000002E-24
  -2.15799995E-02     1.00000002E-24
  -2.15700008E-02     1.00000002E-24
  -2.15600003E-02     1.00000002E-24
  -2.15499997E-02     1.00000002E-24
  -2.15399992E-02     1.00000002E-24
  -2.15300005E-02     1.00000002E-24
  -2.15200000E-02     1.00000002E-24
  -2.15099994E-02     1.00000002E-24
  -2.15000007E-02     1.00000002E-24
  -2.14900002E-02     1.00000002E-24
  -2.14799996E-02     1.00000002E-24
  -2.14699991E-02     1.00000012E-24
  -2.14600004E-02     1.00000012E-24
  -2.14499999E-02     1.00000022E-24
  -2.14399993E-02     1.00000022E-24
  -2.14300007E-02     1.00000032E-24
  -2.14200001E-02     1.00000032E-24
  -2.14099996E-02     1.00000032E-24
  -2.14000009E-02     1.00000032E-24
  -2.13900004E-02     1.00000032E-24
  -2.13799998E-02     1.00000041E-24
  -2.13699993E-02     1.00000041E-24
  -2.13600006E-02     1.00000051E-24
  -2.13500001E-02     1.00000051E-24
  -2.13399995E-02     1.00000061E-24
  -2.13300008E-02     1.00000061E-24
  -2.13200003E-02     1.00000061E-24
  -2.13099997E-02     1.00000061E-24
  -2.12999992E-02     1.00000061E-24
  -2.12900005E-02     1.00000061E-24
  -2.12800000E-02     1.00000061E-24
  -2.12699994E-02     1.00000061E-24
  -2.12600008E-02     1.00000061E-24
  -2.12500002E-02     1.00000061E-24
  -2.12399997E-02     1.00000061E-24
  -2.12299991E-02     1.00000061E-24
  -2.12200005E-02     1.00000061E-24
  -2.12099999E-02     1.00000061E-24
  -2.11999994E-02     1.00000061E-24
  -2.11900007E-02     1.00000061E-24
  -2.11800002E-02     1.00000051E-24
  -2.11699996E-02     1.00000051E-24
  -2.11599991E-02     1.00000041E-24
  -2.11500004E-02     1.00000041E-24
  -2.11399999E-02     1.00000022E-24
  -2.11299993E-02     1.00000012E-24
  -2.11200006E-02     1.00000012E-24
  -2.11100001E-02     1.00000002E-24
  -2.10999995E-02     9.99999921E-25
  -2.10900009E-02     9.99999921E-25
  -2.10800003E-02     9.99999822E-25
  -2.10699998E-02     9.99999724E-25
  -2.10599992E-02     9.99999724E-25
  -2.10500006E-02     9.99999724E-25
  -2.10400000E-02     9.99999724E-25
  -2.10299995E-02     9.99999724E-25
  -2.10200008E-02     9.99999724E-25
  -2.10100003E-02     9.99999724E-25
  -2.09999997E-02     9.99999724E-25
  -2.09899992E-02     9.99999724E-25
  -2.09800005E-02     9.99999724E-25
  -2.09700000E-02     9.99999724E-25
  -2.09599994E-02     9.99999724E-25
  -2.09500007E-02     9.99999724E-25
  -2.09400002E-02     9.99999724E-25
  -2.09299996E-02     9.99999822E-25
  -2.09199991E-02     9.99999822E-25
  -2.09100004E-02     9.99999921E-25
  -2.08999999E-02     1.00000002E-24
  -2.08899993E-02     1.00000002E-24
  -2.08800007E-02     1.00000012E-24
  -2.08700001E-02     1.00000022E-24
  -2.08599996E-02     1.00000022E-24
  -2.08500009E-02     1.00000032E-24
  -2.08400004E-02     1.00000041E-24
  -2.08299998E-02     1.00000041E-24
  -2.08199993E-02     1.00000051E-24
  -2.08100006E-02     1.00000051E-24
  -2.08000001E-02     1.00000051E-24
  -2.07899995E-02     1.00000051E-24
  -2.07800008E-02     1.00000051E-24
  -2.07700003E-02     1.00000051E-24
  -2.07599998E-02     1.00000051E-24
  -2.07499992E-02     1.00000051E-24
  -2.07400005E-02     1.00000051E-24
  -2.07300000E-02     1.00000051E-24
  -2.07199994E-02     1.00000051E-24
  -2.07100008E-02     1.00000051E-24
  -2.07000002E-02     1.00000051E-24
  -2.06899997E-02     1.00000051E-24
  -2.06799991E-02     1.00000051E-24
  -2.06700005E-02     1.00000051E-24
  -2.06599999E-02     1.00000041E-24
  -2.06499994E-02     1.00000041E-24
  -2.06400007E-02     1.00000041E-24
  -2.06300002E-02     1.00000041E-24
  -2.06199996E-02     1.00000041E-24
  -2.06099991E-02     1.00000041E-24
  -2.06000004E-02     1.00000041E-24
  -2.05899999E-02     1.00000032E-24
  -2.05799993E-02     1.00000022E-24
  -2.05700006E-02     1.00000022E-24
  -2.05600001E-02     1.00000012E-24
  -2.05499995E-02     1.00000012E-24
  -2.05400009E-02     1.00000002E-24
  -2.05300003E-02     9.99999921E-25
  -2.05199998E-02     9.99999921E-25
  -2.05099992E-02     9.99999822E-25
  -2.05000006E-02     9.99999822E-25
  -2.04900000E-02     9.99999724E-25
  -2.04799995E-02     9.99999724E-25
  -2.04700008E-02     9.99999625E-25
  -2.04600003E-02     9.99999527E-25
  -2.04499997E-02     9.99999527E-25
  -2.04399992E-02     9.99999527E-25
  -2.04300005E-02     9.99999625E-25
  -2.04200000E-02     9.99999625E-25
  -2.04099994E-02     9.99999625E-25
  -2.04000007E-02     9.99999625E-25
  -2.03900002E-02     9.99999625E-25
  -2.03799997E-02     9.99999625E-25
  -2.03699991E-02     9.99999724E-25
  -2.03600004E-02     9.99999724E-25
  -2.03499999E-02     9.99999822E-25
  -2.03399993E-02     9.99999822E-25
  -2.03300007E-02     9.99999921E-25
  -2.03200001E-02     1.00000002E-24
  -2.03099996E-02     1.00000012E-24
  -2.03000009E-02     1.00000022E-24
  -2.02900004E-02     1.00000032E-24
  -2.02799998E-02     1.00000032E-24
  -2.02699993E-02     1.00000041E-24
  -2.02600006E-02     1.00000051E-24
  -2.02500001E-02     1.00000051E-24
  -2.02399995E-02     1.00000061E-24
  -2.02300008E-02     1.00000061E-24
  -2.02200003E-02     1.00000061E-24
  -2.02099998E-02     1.00000061E-24
  -2.01999992E-02     1.00000061E-24
  -2.01900005E-02     1.00000061E-24
  -2.01800000E-02     1.00000051E-24
  -2.01699995E-02     1.00000051E-24
  -2.01600008E-02     1.00000051E-24
  -2.01500002E-02     1.00000051E-24
  -2.01399997E-02     1.00000051E-24
  -2.01299991E-02     1.00000051E-24
  -2.01200005E-02     1.00000041E-24
  -2.01099999E-02     1.00000041E-24
  -2.00999994E-02     1.00000032E-24
  -2.00900007E-02     1.00000032E-24
  -2.00800002E-02     1.00000032E-24
  -2.00699996E-02     1.00000032E-24
  -2.00599991E-02     1.00000022E-24
  -2.00500004E-02     1.00000022E-24
  -2.00399999E-02     1.00000012E-24
  -2.00299993E-02     1.00000002E-24
  -2.00200006E-02     1.00000002E-24
  -2.00100001E-02     9.99999921E-25
  -1.99999996E-02     9.99999822E-25
  -1.99900009E-02     9.99999822E-25
  -1.99800003E-02     9.99999822E-25
  -1.99699998E-02     9.99999724E-25
  -1.99599992E-02     9.99999724E-25
  -1.99500006E-02     9.99999724E-25
  -1.99400000E-02     9.99999625E-25
  -1.99299995E-02     9.99999625E-25
  -1.99200008E-02     9.99999527E-25
  -1.99100003E-02     9.99999527E-25
  -1.98999997E-02     9.99999527E-25
  -1.98899992E-02     9.99999625E-25
  -1.98800005E-02     9.99999724E-25
  -1.98700000E-02     9.99999724E-25
  -1.98599994E-02     9.99999822E-25
  -1.98500007E-02     9.99999822E-25
  -1.98400002E-02     9.99999921E-25
  -1.98299997E-02     1.00000002E-24
  -1.98199991E-02     1.00000012E-24
  -1.98100004E-02     1.00000022E-24
  -1.97999999E-02     1.00000032E-24
  -1.97899994E-02     1.00000041E-24
  -1.97800007E-02     1.00000051E-24
  -1.97700001E-02     1.00000061E-24
  -1.97599996E-02     1.00000071E-24
  -1.97500009E-02     1.00000071E-24
  -1.97400004E-02     1.00000081E-24
  -1.97299998E-02     1.00000081E-24
  -1.97199993E-02     1.00000091E-24
  -1.97100006E-02     1.00000091E-24
  -1.97000001E-02     1.00000101E-24
  -1.96899995E-02     1.00000110E-24
  -1.96800008E-02     1.00000110E-24
  -1.96700003E-02     1.00000110E-24
  -1.96599998E-02     1.00000110E-24
  -1.96499992E-02     1.00000110E-24
  -1.96400005E-02     1.00000110E-24
  -1.96300000E-02     1.00000101E-24
  -1.96199995E-02     1.00000101E-24
  -1.96100008E-02     1.00000081E-24
  -1.96000002E-02     1.00000071E-24
  -1.95899997E-02     1.00000061E-24
  -1.95799991E-02     1.00000041E-24
  -1.95700005E-02     1.00000022E-24
  -1.95599999E-02     1.00000002E-24
  -1.95499994E-02     9.99999822E-25
  -1.95400007E-02     9.99999625E-25
  -1.95300002E-02     9.99999329E-25
  -1.95199996E-02     9.99999132E-25
  -1.95099991E-02     9.99998836E-25
  -1.95000004E-02     9.99998639E-25
  -1.94899999E-02     9.99998442E-25
  -1.94799993E-02     9.99998146E-25
  -1.94700006E-02     9.99997949E-25
  -1.94600001E-02     9.99997850E-25
  -1.94499996E-02     9.99997653E-25
  -1.94400009E-02     9.99997554E-25
  -1.94300003E-02     9.99997456E-25
  -1.94199998E-02     9.99997456E-25
  -1.94099993E-02     9.99997456E-25
  -1.94000006E-02     9.99997456E-25
  -1.93900000E-02     9.99997554E-25
  -1.93799995E-02     9.99997752E-25
  -1.93700008E-02     9.99997949E-25
  -1.93600003E-02     9.99998146E-25
  -1.93499997E-02     9.99998540E-25
  -1.93399992E-02     9.99998836E-25
  -1.93300005E-02     9.99999231E-25
  -1.93200000E-02     9.99999625E-25
  -1.93099994E-02     1.00000012E-24
  -1.93000007E-02     1.00000051E-24
  -1.92900002E-02     1.00000101E-24
  -1.92799997E-02     1.00000150E-24
  -1.92699991E-02     1.00000189E-24
  -1.92600004E-02     1.00000229E-24
  -1.92499999E-02     1.00000268E-24
  -1.92399994E-02     1.00000308E-24
  -1.92300007E-02     1.00000347E-24
  -1.92200001E-02     1.00000367E-24
  -1.92099996E-02     1.00000387E-24
  -1.92000009E-02     1.00000396E-24
  -1.91900004E-02     1.00000406E-24
  -1.91799998E-02     1.00000396E-24
  -1.91699993E-02     1.00000387E-24
  -1.91600006E-02     1.00000357E-24
  -1.91500001E-02     1.00000317E-24
  -1.91399995E-02     1.00000278E-24
  -1.91300008E-02     1.00000229E-24
  -1.91200003E-02     1.00000170E-24
  -1.91099998E-02     1.00000110E-24
  -1.90999992E-02     1.00000041E-24
  -1.90900005E-02     9.99999724E-25
  -1.90800000E-02     9.99998935E-25
  -1.90699995E-02     9.99998146E-25
  -1.90600008E-02     9.99997456E-25
  -1.90500002E-02     9.99996765E-25
  -1.90399997E-02     9.99995977E-25
  -1.90299992E-02     9.99995385E-25
  -1.90200005E-02     9.99994793E-25
  -1.90099999E-02     9.99994202E-25
  -1.89999994E-02     9.99993807E-25
  -1.89900007E-02     9.99993511E-25
  -1.89800002E-02     9.99993314E-25
  -1.89699996E-02     9.99993216E-25
  -1.89599991E-02     9.99993314E-25
  -1.89500004E-02     9.99993511E-25
  -1.89399999E-02     9.99993807E-25
  -1.89299993E-02     9.99994300E-25
  -1.89200006E-02     9.99994793E-25
  -1.89100001E-02     9.99995484E-25
  -1.88999996E-02     9.99996174E-25
  -1.88900009E-02     9.99996963E-25
  -1.88800003E-02     9.99997752E-25
  -1.88699998E-02     9.99998738E-25
  -1.88599993E-02     9.99999724E-25
  -1.88500006E-02     1.00000071E-24
  -1.88400000E-02     1.00000179E-24
  -1.88299995E-02     1.00000288E-24
  -1.88200008E-02     1.00000387E-24
  -1.88100003E-02     1.00000495E-24
  -1.87999997E-02     1.00000594E-24
  -1.87899992E-02     1.00000692E-24
  -1.87800005E-02     1.00000781E-24
  -1.87700000E-02     1.00000850E-24
  -1.87599994E-02     1.00000919E-24
  -1.87500007E-02     1.00000988E-24
  -1.87400002E-02     1.00001047E-24
  -1.87299997E-02     1.00001096E-24
  -1.87199991E-02     1.00001156E-24
  -1.87100004E-02     1.00001195E-24
  -1.86999999E-02     1.00001235E-24
  -1.86899994E-02     1.00001284E-24
  -1.86800007E-02     1.00001323E-24
  -1.86700001E-02     1.00001382E-24
  -1.86599996E-02     1.00001432E-24
  -1.86500009E-02     1.00001501E-24
  -1.86400004E-02     1.00001580E-24
  -1.86299998E-02     1.00001659E-24
  -1.86199993E-02     1.00001757E-24
  -1.86100006E-02     1.00001866E-24
  -1.86000001E-02     1.00001974E-24
  -1.85899995E-02     1.00002083E-24
  -1.85800008E-02     1.00002201E-24
  -1.85700003E-02     1.00002319E-24
  -1.85599998E-02     1.00002428E-24
  -1.85499992E-02     1.00002507E-24
  -1.85400005E-02     1.00002576E-24
  -1.85300000E-02     1.00002605E-24
  -1.85199995E-02     1.00002605E-24
  -1.85100008E-02     1.00002556E-24
  -1.85000002E-02     1.00002438E-24
  -1.84899997E-02     1.00002260E-24
  -1.84799992E-02     1.00002014E-24
  -1.84700005E-02     1.00001678E-24
  -1.84599999E-02     1.00001254E-24
  -1.84499994E-02     1.00000742E-24
  -1.84400007E-02     1.00000120E-24
  -1.84300002E-02     9.99994103E-25
  -1.84199996E-02     9.99986017E-25
  -1.84099991E-02     9.99976847E-25
  -1.84000004E-02     9.99966789E-25
  -1.83899999E-02     9.99955942E-25
  -1.83799993E-02     9.99944306E-25
  -1.83700006E-02     9.99931980E-25
  -1.83600001E-02     9.99919359E-25
  -1.83499996E-02     9.99906540E-25
  -1.83400009E-02     9.99893622E-25
  -1.83300003E-02     9.99881000E-25
  -1.83199998E-02     9.99868871E-25
  -1.83099993E-02     9.99857630E-25
  -1.83000006E-02     9.99847671E-25
  -1.82900000E-02     9.99839191E-25
  -1.82799995E-02     9.99832584E-25
  -1.82700008E-02     9.99828146E-25
  -1.82600003E-02     9.99826372E-25
  -1.82499997E-02     9.99827555E-25
  -1.82399992E-02     9.99831894E-25
  -1.82300005E-02     9.99839782E-25
  -1.82200000E-02     9.99851615E-25
  -1.82099994E-02     9.99867392E-25
  -1.82000007E-02     9.99887410E-25
  -1.81900002E-02     9.99911766E-25
  -1.81799997E-02     9.99940461E-25
  -1.81699991E-02     9.99973494E-25
  -1.81600004E-02     1.00001067E-24
  -1.81499999E-02     1.00005179E-24
  -1.81399994E-02     1.00009675E-24
  -1.81300007E-02     1.00014497E-24
  -1.81200001E-02     1.00019615E-24
  -1.81099996E-02     1.00024960E-24
  -1.81000009E-02     1.00030462E-24
  -1.80900004E-02     1.00036053E-24
  -1.80799998E-02     1.00041654E-24
  -1.80699993E-02     1.00047176E-24
  -1.80600006E-02     1.00052511E-24
  -1.80500001E-02     1.00057549E-24
  -1.80399995E-02     1.00062194E-24
  -1.80300009E-02     1.00066335E-24
  -1.80200003E-02     1.00069875E-24
  -1.80099998E-02     1.00072686E-24
  -1.79999992E-02     1.00074668E-24
  -1.79900005E-02     1.00075703E-24
  -1.79800000E-02     1.00075703E-24
  -1.79699995E-02     1.00074589E-24
  -1.79600008E-02     1.00072271E-24
  -1.79500002E-02     1.00068692E-24
  -1.79399997E-02     1.00063771E-24
  -1.79299992E-02     1.00057500E-24
  -1.79200005E-02     1.00049848E-24
  -1.79099999E-02     1.00040816E-24
  -1.78999994E-02     1.00030422E-24
  -1.78900007E-02     1.00018708E-24
  -1.78800002E-02     1.00005731E-24
  -1.78699996E-02     9.99916006E-25
  -1.78599991E-02     9.99763953E-25
  -1.78500004E-02     9.99602532E-25
  -1.78399999E-02     9.99433223E-25
  -1.78299993E-02     9.99257899E-25
  -1.78200006E-02     9.99078433E-25
  -1.78100001E-02     9.98896896E-25
  -1.77999996E-02     9.98715557E-25
  -1.77900009E-02     9.98536781E-25
  -1.77800003E-02     9.98363133E-25
  -1.77699998E-02     9.98197374E-25
  -1.77599993E-02     9.98041968E-25
  -1.77500006E-02     9.97899677E-25
  -1.77400000E-02     9.97773262E-25
  -1.77299995E-02     9.97665386E-25
  -1.77200008E-02     9.97578414E-25
  -1.77100003E-02     9.97514812E-25
  -1.76999997E-02     9.97476947E-25
  -1.76899992E-02     9.97466790E-25
  -1.76800005E-02     9.97486314E-25
  -1.76700000E-02     9.97536900E-25
  -1.76599994E-02     9.97619730E-25
  -1.76500008E-02     9.97735989E-25
  -1.76400002E-02     9.97886070E-25
  -1.76299997E-02     9.98070269E-25
  -1.76199991E-02     9.98288093E-25
  -1.76100004E-02     9.98539148E-25
  -1.75999999E-02     9.98822250E-25
  -1.75899994E-02     9.99135822E-25
  -1.75800007E-02     9.99477991E-25
  -1.75700001E-02     9.99846290E-25
  -1.75599996E-02     1.00023786E-24
  -1.75500009E-02     1.00064955E-24
  -1.75400004E-02     1.00107750E-24
  -1.75299998E-02     1.00151789E-24
  -1.75199993E-02     1.00196626E-24
  -1.75100006E-02     1.00241798E-24
  -1.75000001E-02     1.00286812E-24
  -1.74899995E-02     1.00331146E-24
  -1.74800009E-02     1.00374257E-24
  -1.74700003E-02     1.00415613E-24
  -1.74599998E-02     1.00454662E-24
  -1.74499992E-02     1.00490831E-24
  -1.74400005E-02     1.00523579E-24
  -1.74300000E-02     1.00552343E-24
  -1.74199995E-02     1.00576610E-24
  -1.74100008E-02     1.00595858E-24
  -1.74000002E-02     1.00609614E-24
  -1.73899997E-02     1.00617404E-24
  -1.73799992E-02     1.00618824E-24
  -1.73700005E-02     1.00613489E-24
  -1.73599999E-02     1.00601075E-24
  -1.73499994E-02     1.00581284E-24
  -1.73400007E-02     1.00553910E-24
  -1.73300002E-02     1.00518777E-24
  -1.73199996E-02     1.00475764E-24
  -1.73099991E-02     1.00424813E-24
  -1.73000004E-02     1.00365964E-24
  -1.72899999E-02     1.00299276E-24
  -1.72799993E-02     1.00224896E-24
  -1.72700007E-02     1.00143032E-24
  -1.72600001E-02     1.00053970E-24
  -1.72499996E-02     9.99580148E-25
  -1.72400009E-02     9.98555911E-25
  -1.72300003E-02     9.97471425E-25
  -1.72199998E-02     9.96331915E-25
  -1.72099993E-02     9.95143003E-25
  -1.72000006E-02     9.93910901E-25
  -1.71900000E-02     9.92642018E-25
  -1.71799995E-02     9.91343652E-25
  -1.71700008E-02     9.90022901E-25
  -1.71600003E-02     9.88687557E-25
  -1.71499997E-02     9.87345803E-25
  -1.71399992E-02     9.86005331E-25
  -1.71300005E-02     9.84674720E-25
  -1.71200000E-02     9.83362253E-25
  -1.71099994E-02     9.82076311E-25
  -1.71000008E-02     9.80825079E-25
  -1.70900002E-02     9.79616938E-25
  -1.70799997E-02     9.78459975E-25
  -1.70699991E-02     9.77361980E-25
  -1.70600004E-02     9.76330643E-25
  -1.70499999E-02     9.75373163E-25
  -1.70399994E-02     9.74496442E-25
  -1.70300007E-02     9.73707088E-25
  -1.70200001E-02     9.73011214E-25
  -1.70099996E-02     9.72414244E-25
  -1.70000009E-02     9.71921107E-25
  -1.69900004E-02     9.71536340E-25
  -1.69799998E-02     9.71263789E-25
  -1.69699993E-02     9.71106608E-25
  -1.69600006E-02     9.71067264E-25
  -1.69500001E-02     9.71147531E-25
  -1.69399995E-02     9.71348789E-25
  -1.69300009E-02     9.71671236E-25
  -1.69200003E-02     9.72114773E-25
  -1.69099998E-02     9.72678414E-25
  -1.68999992E-02     9.73360384E-25
  -1.68900006E-02     9.74158218E-25
  -1.68800000E-02     9.75068958E-25
  -1.68699995E-02     9.76088561E-25
  -1.68600008E-02     9.77212688E-25
  -1.68500002E-02     9.78436211E-25
  -1.68399997E-02     9.79753214E-25
  -1.68299992E-02     9.81157288E-25
  -1.68200005E-02     9.82641628E-25
  -1.68099999E-02     9.84198445E-25
  -1.67999994E-02     9.85819850E-25
  -1.67900007E-02     9.87496969E-25
  -1.67800002E-02     9.89221123E-25
  -1.67699996E-02     9.90982748E-25
  -1.67599991E-02     9.92772081E-25
  -1.67500004E-02     9.94579165E-25
  -1.67399999E-02     9.96393643E-25
  -1.67299993E-02     9.98205164E-25
  -1.67200007E-02     1.00000288E-24
  -1.67100001E-02     1.00177604E-24
  -1.66999996E-02     1.00351410E-24
  -1.66900009E-02     1.00520611E-24
  -1.66800003E-02     1.00684161E-24
  -1.66699998E-02     1.00840997E-24
  -1.66599993E-02     1.00990101E-24
  -1.66500006E-02     1.01130459E-24
  -1.66400000E-02     1.01261114E-24
  -1.66299995E-02     1.01381130E-24
  -1.66200008E-02     1.01489628E-24
  -1.66100003E-02     1.01585770E-24
  -1.65999997E-02     1.01668768E-24
  -1.65899992E-02     1.01737922E-24
  -1.65800005E-02     1.01792570E-24
  -1.65700000E-02     1.01832122E-24
  -1.65599994E-02     1.01856073E-24
  -1.65500008E-02     1.01863992E-24
  -1.65400002E-02     1.01855521E-24
  -1.65299997E-02     1.01830406E-24
  -1.65199991E-02     1.01788458E-24
  -1.65100005E-02     1.01729589E-24
  -1.64999999E-02     1.01653790E-24
  -1.64899994E-02     1.01561168E-24
  -1.64800007E-02     1.01451891E-24
  -1.64700001E-02     1.01326255E-24
  -1.64599996E-02     1.01184615E-24
  -1.64500009E-02     1.01027444E-24
  -1.64400004E-02     1.00855305E-24
  -1.64299998E-02     1.00668828E-24
  -1.64199993E-02     1.00468743E-24
  -1.64100006E-02     1.00255849E-24
  -1.64000001E-02     1.00031063E-24
  -1.63899995E-02     9.97953419E-25
  -1.63800009E-02     9.95497300E-25
  -1.63700003E-02     9.92953224E-25
  -1.63599998E-02     9.90333022E-25
  -1.63499992E-02     9.87648923E-25
  -1.63400006E-02     9.84913745E-25
  -1.63300000E-02     9.82140603E-25
  -1.63199995E-02     9.79343204E-25
  -1.63100008E-02     9.76535451E-25
  -1.63000003E-02     9.73731346E-25
  -1.62899997E-02     9.70945385E-25
  -1.62799992E-02     9.68191965E-25
  -1.62700005E-02     9.65485284E-25
  -1.62599999E-02     9.62839938E-25
  -1.62499994E-02     9.60270026E-25
  -1.62400007E-02     9.57789552E-25
  -1.62300002E-02     9.55412122E-25
  -1.62199996E-02     9.53151444E-25
  -1.62099991E-02     9.51020238E-25
  -1.62000004E-02     9.49031026E-25
  -1.61899999E-02     9.47195643E-25
  -1.61799993E-02     9.45525230E-25
  -1.61700007E-02     9.44030733E-25
  -1.61600001E-02     9.42721815E-25
  -1.61499996E-02     9.41607451E-25
  -1.61400009E-02     9.40695823E-25
  -1.61300004E-02     9.39994526E-25
  -1.61199998E-02     9.39509672E-25
  -1.61099993E-02     9.39246784E-25
  -1.61000006E-02     9.39210201E-25
  -1.60900000E-02     9.39403373E-25
  -1.60799995E-02     9.39828569E-25
  -1.60700008E-02     9.40486874E-25
  -1.60600003E-02     9.41378582E-25
  -1.60499997E-02     9.42502512E-25
  -1.60399992E-02     9.43856592E-25
  -1.60300005E-02     9.45437469E-25
  -1.60200000E-02     9.47240904E-25
  -1.60099994E-02     9.49261176E-25
  -1.60000008E-02     9.51491681E-25
  -1.59900002E-02     9.53924528E-25
  -1.59799997E-02     9.56551237E-25
  -1.59699991E-02     9.59361751E-25
  -1.59600005E-02     9.62345223E-25
  -1.59499999E-02     9.65489722E-25
  -1.59399994E-02     9.68782526E-25
  -1.59300007E-02     9.72209929E-25
  -1.59200002E-02     9.75757338E-25
  -1.59099996E-02     9.79409468E-25
  -1.59000009E-02     9.83150345E-25
  -1.58900004E-02     9.86963206E-25
  -1.58799998E-02     9.90830793E-25
  -1.58699993E-02     9.94735063E-25
  -1.58600006E-02     9.98657970E-25
  -1.58500001E-02     1.00258048E-24
  -1.58399995E-02     1.00648386E-24
  -1.58300009E-02     1.01034879E-24
  -1.58200003E-02     1.01415603E-24
  -1.58099998E-02     1.01788596E-24
  -1.57999992E-02     1.02151926E-24
  -1.57900006E-02     1.02503669E-24
  -1.57800000E-02     1.02841933E-24
  -1.57699995E-02     1.03164813E-24
  -1.57600008E-02     1.03470526E-24
  -1.57500003E-02     1.03757258E-24
  -1.57399997E-02     1.04023311E-24
  -1.57299992E-02     1.04267039E-24
  -1.57200005E-02     1.04486885E-24
  -1.57099999E-02     1.04681359E-24
  -1.56999994E-02     1.04849090E-24
  -1.56900007E-02     1.04988827E-24
  -1.56800002E-02     1.05099426E-24
  -1.56699996E-02     1.05179860E-24
  -1.56599991E-02     1.05229252E-24
  -1.56500004E-02     1.05246883E-24
  -1.56399999E-02     1.05232151E-24
  -1.56299993E-02     1.05184632E-24
  -1.56199997E-02     1.05104060E-24
  -1.56100001E-02     1.04990346E-24
  -1.55999996E-02     1.04843568E-24
  -1.55900000E-02     1.04663984E-24
  -1.55800004E-02     1.04452047E-24
  -1.55699998E-02     1.04208368E-24
  -1.55600002E-02     1.03933755E-24
  -1.55499997E-02     1.03629196E-24
  -1.55400001E-02     1.03295883E-24
  -1.55300004E-02     1.02935156E-24
  -1.55199999E-02     1.02548555E-24
  -1.55100003E-02     1.02137795E-24
  -1.54999997E-02     1.01704750E-24
  -1.54900001E-02     1.01251461E-24
  -1.54799996E-02     1.00780097E-24
  -1.54700000E-02     1.00293005E-24
  -1.54600004E-02     9.97926400E-25
  -1.54499998E-02     9.92816060E-25
  -1.54400002E-02     9.87625849E-25
  -1.54299997E-02     9.82383572E-25
  -1.54200001E-02     9.77118123E-25
  -1.54100005E-02     9.71858689E-25
  -1.53999999E-02     9.66635246E-25
  -1.53900003E-02     9.61477476E-25
  -1.53799998E-02     9.56415948E-25
  -1.53700002E-02     9.51480735E-25
  -1.53599996E-02     9.46701717E-25
  -1.53500000E-02     9.42108180E-25
  -1.53400004E-02     9.37729115E-25
  -1.53299998E-02     9.33592427E-25
  -1.53200002E-02     9.29725036E-25
  -1.53099997E-02     9.26152482E-25
  -1.53000001E-02     9.22899121E-25
  -1.52899995E-02     9.19987633E-25
  -1.52799999E-02     9.17438725E-25
  -1.52700003E-02     9.15271231E-25
  -1.52599998E-02     9.13502210E-25
  -1.52500002E-02     9.12145961E-25
  -1.52399996E-02     9.11214514E-25
  -1.52300000E-02     9.10717630E-25
  -1.52200004E-02     9.10662212E-25
  -1.52099999E-02     9.11052501E-25
  -1.52000003E-02     9.11889976E-25
  -1.51899997E-02     9.13173452E-25
  -1.51800001E-02     9.14898494E-25
  -1.51699996E-02     9.17058296E-25
  -1.51600000E-02     9.19642901E-25
  -1.51500003E-02     9.22639685E-25
  -1.51399998E-02     9.26033068E-25
  -1.51300002E-02     9.29805204E-25
  -1.51199996E-02     9.33935384E-25
  -1.51100000E-02     9.38400534E-25
  -1.51000004E-02     9.43175114E-25
  -1.50899999E-02     9.48231713E-25
  -1.50800003E-02     9.53540944E-25
  -1.50699997E-02     9.59071352E-25
  -1.50600001E-02     9.64790101E-25
  -1.50499996E-02     9.70663170E-25
  -1.50400000E-02     9.76654963E-25
  -1.50300004E-02     9.82729488E-25
  -1.50199998E-02     9.88849766E-25
  -1.50100002E-02     9.94978624E-25
  -1.49999997E-02     1.00107889E-24
  -1.49900001E-02     1.00711328E-24
  -1.49800004E-02     1.01304502E-24
  -1.49699999E-02     1.01883822E-24
  -1.49600003E-02     1.02445757E-24
  -1.49499997E-02     1.02986915E-24
  -1.49400001E-02     1.03504053E-24
  -1.49299996E-02     1.03994064E-24
  -1.49200000E-02     1.04454068E-24
  -1.49100004E-02     1.04881355E-24
  -1.48999998E-02     1.05273458E-24
  -1.48900002E-02     1.05628150E-24
  -1.48799997E-02     1.05943448E-24
  -1.48700001E-02     1.06217656E-24
  -1.48600005E-02     1.06449354E-24
  -1.48499999E-02     1.06637379E-24
  -1.48400003E-02     1.06780912E-24
  -1.48299998E-02     1.06879382E-24
  -1.48200002E-02     1.06932531E-24
  -1.48099996E-02     1.06940390E-24
  -1.48000000E-02     1.06903314E-24
  -1.47900004E-02     1.06821874E-24
  -1.47799999E-02     1.06696977E-24
  -1.47700002E-02     1.06529759E-24
  -1.47599997E-02     1.06321647E-24
  -1.47500001E-02     1.06074270E-24
  -1.47399995E-02     1.05789511E-24
  -1.47299999E-02     1.05469431E-24
  -1.47200003E-02     1.05116297E-24
  -1.47099998E-02     1.04732556E-24
  -1.47000002E-02     1.04320780E-24
  -1.46899996E-02     1.03883663E-24
  -1.46800000E-02     1.03424043E-24
  -1.46700004E-02     1.02944820E-24
  -1.46599999E-02     1.02448952E-24
  -1.46500003E-02     1.01939426E-24
  -1.46399997E-02     1.01419281E-24
  -1.46300001E-02     1.00891523E-24
  -1.46199996E-02     1.00359151E-24
  -1.46100000E-02     9.98251016E-25
  -1.46000003E-02     9.92922655E-25
  -1.45899998E-02     9.87634428E-25
  -1.45800002E-02     9.82413450E-25
  -1.45699997E-02     9.77285756E-25
  -1.45600000E-02     9.72275996E-25
  -1.45500004E-02     9.67407344E-25
  -1.45399999E-02     9.62701788E-25
  -1.45300003E-02     9.58179446E-25
  -1.45199997E-02     9.53858855E-25
  -1.45100001E-02     9.49756975E-25
  -1.44999996E-02     9.45888895E-25
  -1.44900000E-02     9.42267924E-25
  -1.44800004E-02     9.38905701E-25
  -1.44699998E-02     9.35811788E-25
  -1.44600002E-02     9.32994371E-25
  -1.44499997E-02     9.30459564E-25
  -1.44400001E-02     9.28212198E-25
  -1.44300004E-02     9.26255034E-25
  -1.44199999E-02     9.24589650E-25
  -1.44100003E-02     9.23215948E-25
  -1.43999998E-02     9.22132447E-25
  -1.43900001E-02     9.21336585E-25
  -1.43799996E-02     9.20824121E-25
  -1.43700000E-02     9.20590323E-25
  -1.43600004E-02     9.20629174E-25
  -1.43499998E-02     9.20933773E-25
  -1.43400002E-02     9.21496329E-25
  -1.43299997E-02     9.22308659E-25
  -1.43200001E-02     9.23361887E-25
  -1.43100005E-02     9.24646547E-25
  -1.42999999E-02     9.26153074E-25
  -1.42900003E-02     9.27871312E-25
  -1.42799998E-02     9.29791103E-25
  -1.42700002E-02     9.31902095E-25
  -1.42599996E-02     9.34193834E-25
  -1.42500000E-02     9.36655771E-25
  -1.42400004E-02     9.39277649E-25
  -1.42299999E-02     9.42048818E-25
  -1.42200002E-02     9.44959321E-25
  -1.42099997E-02     9.47998703E-25
  -1.42000001E-02     9.51157105E-25
  -1.41899996E-02     9.54424370E-25
  -1.41799999E-02     9.57790834E-25
  -1.41700003E-02     9.61246735E-25
  -1.41599998E-02     9.64782409E-25
  -1.41500002E-02     9.68388391E-25
  -1.41399996E-02     9.72055312E-25
  -1.41300000E-02     9.75773509E-25
  -1.41200004E-02     9.79533714E-25
  -1.41099999E-02     9.83326360E-25
  -1.41000003E-02     9.87141685E-25
  -1.40899997E-02     9.90970225E-25
  -1.40800001E-02     9.94802018E-25
  -1.40699996E-02     9.98627204E-25
  -1.40600000E-02     1.00243553E-24
  -1.40500003E-02     1.00621654E-24
  -1.40399998E-02     1.00995949E-24
  -1.40300002E-02     1.01365333E-24
  -1.40199997E-02     1.01728712E-24
  -1.40100000E-02     1.02084922E-24
  -1.40000004E-02     1.02432780E-24
  -1.39899999E-02     1.02771083E-24
  -1.39800003E-02     1.03098618E-24
  -1.39699997E-02     1.03414133E-24
  -1.39600001E-02     1.03716365E-24
  -1.39499996E-02     1.04004053E-24
  -1.39400000E-02     1.04275924E-24
  -1.39300004E-02     1.04530716E-24
  -1.39199998E-02     1.04767187E-24
  -1.39100002E-02     1.04984084E-24