  -2.19999999E-02     1.00000002E-24
  -2.19899993E-02     9.99999822E-25
  -2.19800007E-02     9.99999428E-25
  -2.19700001E-02     9.99999033E-25
  -2.19599996E-02     9.99998935E-25
  -2.19500009E-02     9.99999033E-25
  -2.19400004E-02     9.99999132E-25
  -2.19299998E-02     9.99998935E-25
  -2.19199993E-02     9.99998442E-25
  -2.19100006E-02     9.99997752E-25
  -2.19000001E-02     9.99997160E-25
  -2.18899995E-02     9.99996864E-25
  -2.18800008E-02     9.99996963E-25
  -2.18700003E-02     9.99997160E-25
  -2.18599997E-02     9.99997357E-25
  -2.18499992E-02     9.99997061E-25
  -2.18400005E-02     9.99996371E-25
  -2.18300000E-02     9.99995681E-25
  -2.18199994E-02     9.99995385E-25
  -2.18100008E-02     9.99995484E-25
  -2.18000002E-02     9.99995582E-25
  -2.17899997E-02     9.99995484E-25
  -2.17799991E-02     9.99994793E-25
  -2.17700005E-02     9.99993709E-25
  -2.17599999E-02     9.99992821E-25
  -2.17499994E-02     9.99992525E-25
  -2.17400007E-02     9.99992821E-25
  -2.17300002E-02     9.99993216E-25
  -2.17199996E-02     9.99993216E-25
  -2.17099991E-02     9.99992427E-25
  -2.17000004E-02     9.99991243E-25
  -2.16899998E-02     9.99990257E-25
  -2.16799993E-02     9.99989863E-25
  -2.16700006E-02     9.99989962E-25
  -2.16600001E-02     9.99990060E-25
  -2.16499995E-02     9.99989567E-25
  -2.16400009E-02     9.99988088E-25
  -2.16300003E-02     9.99986017E-25
  -2.16199998E-02     9.99984242E-25
  -2.16099992E-02     9.99983453E-25
  -2.16000006E-02     9.99983848E-25
  -2.15900000E-02     9.99984735E-25
  -2.15799995E-02     9.99985426E-25
  -2.15700008E-02     9.99985130E-25
  -2.15600003E-02     9.99984045E-25
  -2.15499997E-02     9.99983059E-25
  -2.15399992E-02     9.99982960E-25
  -2.15300005E-02     9.99983552E-25
  -2.15200000E-02     9.99984144E-25
  -2.15099994E-02     9.99983848E-25
  -2.15000007E-02     9.99982369E-25
  -2.14900002E-02     9.99980199E-25
  -2.14799996E-02     9.99978227E-25
  -2.14699991E-02     9.99976945E-25
  -2.14600004E-02     9.99976551E-25
  -2.14499999E-02     9.99976551E-25
  -2.14399993E-02     9.99976650E-25
  -2.14300007E-02     9.99976551E-25
  -2.14200001E-02     9.99976058E-25
  -2.14099996E-02     9.99975368E-25
  -2.14000009E-02     9.99974677E-25
  -2.13900004E-02     9.99973691E-25
  -2.13799998E-02     9.99972114E-25
  -2.13699993E-02     9.99969353E-25
  -2.13600006E-02     9.99965014E-25
  -2.13500001E-02     9.99959295E-25
  -2.13399995E-02     9.99952688E-25
  -2.13300008E-02     9.99945490E-25
  -2.13200003E-02     9.99937995E-25
  -2.13099997E-02     9.99930304E-25
  -2.12999992E-02     9.99922711E-25
  -2.12900005E-02     9.99916104E-25
  -2.12800000E-02     9.99911470E-25
  -2.12699994E-02     9.99909695E-25
  -2.12600008E-02     9.99911864E-25
  -2.12500002E-02     9.99918175E-25
  -2.12399997E-02     9.99928430E-25
  -2.12299991E-02     9.99942334E-25
  -2.12200005E-02     9.99959788E-25
  -2.12099999E-02     9.99980495E-25
  -2.11999994E-02     1.00000416E-24
  -2.11900007E-02     1.00002940E-24
  -2.11800002E-02     1.00005425E-24
  -2.11699996E-02     1.00007595E-24
  -2.11599991E-02     1.00009163E-24
  -2.11500004E-02     1.00009902E-24
  -2.11399999E-02     1.00009695E-24
  -2.11299993E-02     1.00008482E-24
  -2.11200006E-02     1.00006254E-24
  -2.11100001E-02     1.00003019E-24
  -2.10999995E-02     9.99988384E-25
  -2.10900009E-02     9.99938587E-25
  -2.10800003E-02     9.99883663E-25
  -2.10699998E-02     9.99827555E-25
  -2.10599992E-02     9.99774405E-25
  -2.10500006E-02     9.99727369E-25
  -2.10400000E-02     9.99688617E-25
  -2.10299995E-02     9.99658837E-25
  -2.10200008E-02     9.99637735E-25
  -2.10100003E-02     9.99624522E-25
  -2.09999997E-02     9.99617619E-25
  -2.09899992E-02     9.99615351E-25
  -2.09800005E-02     9.99615351E-25
  -2.09700000E-02     9.99614760E-25
  -2.09599994E-02     9.99611407E-25
  -2.09500007E-02     9.99603716E-25
  -2.09400002E-02     9.99591587E-25
  -2.09299996E-02     9.99576204E-25
  -2.09199991E-02     9.99559342E-25
  -2.09100004E-02     9.99543269E-25
  -2.08999999E-02     9.99530549E-25
  -2.08899993E-02     9.99523548E-25
  -2.08800007E-02     9.99524238E-25
  -2.08700001E-02     9.99533704E-25
  -2.08599996E-02     9.99551552E-25
  -2.08500009E-02     9.99575415E-25
  -2.08400004E-02     9.99601743E-25
  -2.08299998E-02     9.99626888E-25
  -2.08199993E-02     9.99647202E-25
  -2.08100006E-02     9.99659823E-25
  -2.08000001E-02     9.99662190E-25
  -2.07899995E-02     9.99652724E-25
  -2.07800008E-02     9.99630931E-25
  -2.07700003E-02     9.99598095E-25
  -2.07599998E-02     9.99557863E-25
  -2.07499992E-02     9.99515659E-25
  -2.07400005E-02     9.99477794E-25
  -2.07300000E-02     9.99450381E-25
  -2.07199994E-02     9.99438153E-25
  -2.07100008E-02     9.99443873E-25
  -2.07000002E-02     9.99468623E-25
  -2.06899997E-02     9.99511715E-25
  -2.06799991E-02     9.99570879E-25
  -2.06700005E-02     9.99642074E-25
  -2.06599999E-02     9.99720270E-25
  -2.06499994E-02     9.99799550E-25
  -2.06400007E-02     9.99873605E-25
  -2.06300002E-02     9.99937404E-25
  -2.06199996E-02     9.99987989E-25
  -2.06099991E-02     1.00002457E-24
  -2.06000004E-02     1.00004853E-24
  -2.05899999E-02     1.00006323E-24
  -2.05799993E-02     1.00007299E-24
  -2.05700006E-02     1.00008275E-24
  -2.05600001E-02     1.00009725E-24
  -2.05499995E-02     1.00012042E-24
  -2.05400009E-02     1.00015483E-24
  -2.05300003E-02     1.00020108E-24
  -2.05199998E-02     1.00025689E-24
  -2.05099992E-02     1.00031813E-24
  -2.05000006E-02     1.00037897E-24
  -2.04900000E-02     1.00043340E-24
  -2.04799995E-02     1.00047580E-24
  -2.04700008E-02     1.00050164E-24
  -2.04600003E-02     1.00050854E-24
  -2.04499997E-02     1.00049611E-24
  -2.04399992E-02     1.00046693E-24
  -2.04300005E-02     1.00042600E-24
  -2.04200000E-02     1.00038094E-24
  -2.04099994E-02     1.00034071E-24
  -2.04000007E-02     1.00031438E-24
  -2.03900002E-02     1.00030955E-24
  -2.03799997E-02     1.00033055E-24
  -2.03699991E-02     1.00037848E-24
  -2.03600004E-02     1.00045046E-24
  -2.03499999E-02     1.00054039E-24
  -2.03399993E-02     1.00063979E-24
  -2.03300007E-02     1.00073820E-24
  -2.03200001E-02     1.00082448E-24
  -2.03099996E-02     1.00088808E-24
  -2.03000009E-02     1.00092032E-24
  -2.02900004E-02     1.00091628E-24
  -2.02799998E-02     1.00087615E-24
  -2.02699993E-02     1.00080555E-24
  -2.02600006E-02     1.00071473E-24
  -2.02500001E-02     1.00061671E-24
  -2.02399995E-02     1.00052589E-24
  -2.02300008E-02     1.00045618E-24
  -2.02200003E-02     1.00041940E-24
  -2.02099998E-02     1.00042443E-24
  -2.01999992E-02     1.00047610E-24
  -2.01900005E-02     1.00057372E-24
  -2.01800000E-02     1.00071078E-24
  -2.01699995E-02     1.00087575E-24
  -2.01600008E-02     1.00105275E-24
  -2.01500002E-02     1.00122473E-24
  -2.01399997E-02     1.00137560E-24
  -2.01299991E-02     1.00149225E-24
  -2.01200005E-02     1.00156611E-24
  -2.01099999E-02     1.00159342E-24
  -2.00999994E-02     1.00157537E-24
  -2.00900007E-02     1.00151769E-24
  -2.00800002E-02     1.00143082E-24
  -2.00699996E-02     1.00132817E-24
  -2.00599991E-02     1.00122453E-24
  -2.00500004E-02     1.00113332E-24
  -2.00399999E-02     1.00106488E-24
  -2.00299993E-02     1.00102475E-24
  -2.00200006E-02     1.00101341E-24
  -2.00100001E-02     1.00102731E-24
  -1.99999996E-02     1.00105966E-24
  -1.99900009E-02     1.00110206E-24
  -1.99800003E-02     1.00114525E-24
  -1.99699998E-02     1.00118016E-24
  -1.99599992E-02     1.00119929E-24
  -1.99500006E-02     1.00119800E-24
  -1.99400000E-02     1.00117641E-24
  -1.99299995E-02     1.00113913E-24
  -1.99200008E-02     1.00109397E-24
  -1.99100003E-02     1.00105098E-24
  -1.98999997E-02     1.00102041E-24
  -1.98899992E-02     1.00101075E-24
  -1.98800005E-02     1.00102771E-24
  -1.98700000E-02     1.00107386E-24
  -1.98599994E-02     1.00114761E-24
  -1.98500007E-02     1.00124336E-24
  -1.98400002E-02     1.00135223E-24
  -1.98299997E-02     1.00146227E-24
  -1.98199991E-02     1.00156078E-24
  -1.98100004E-02     1.00163523E-24
  -1.97999999E-02     1.00167586E-24
  -1.97899994E-02     1.00167704E-24
  -1.97800007E-02     1.00163819E-24
  -1.97700001E-02     1.00156354E-24
  -1.97599996E-02     1.00146237E-24
  -1.97500009E-02     1.00134670E-24
  -1.97400004E-02     1.00122966E-24
  -1.97299998E-02     1.00112444E-24
  -1.97199993E-02     1.00104280E-24
  -1.97100006E-02     1.00099408E-24
  -1.97000001E-02     1.00098432E-24
  -1.96899995E-02     1.00101440E-24
  -1.96800008E-02     1.00108017E-24
  -1.96700003E-02     1.00117266E-24
  -1.96599998E-02     1.00128054E-24
  -1.96499992E-02     1.00139196E-24
  -1.96400005E-02     1.00149649E-24
  -1.96300000E-02     1.00158681E-24
  -1.96199995E-02     1.00165870E-24
  -1.96100008E-02     1.00171086E-24
  -1.96000002E-02     1.00174468E-24
  -1.95899997E-02     1.00176450E-24
  -1.95799991E-02     1.00177762E-24
  -1.95700005E-02     1.00179409E-24
  -1.95599999E-02     1.00182446E-24
  -1.95499994E-02     1.00187731E-24
  -1.95400007E-02     1.00195689E-24
  -1.95300002E-02     1.00206309E-24
  -1.95199996E-02     1.00219157E-24
  -1.95099991E-02     1.00233564E-24
  -1.95000004E-02     1.00248769E-24
  -1.94899999E-02     1.00263965E-24
  -1.94799993E-02     1.00278273E-24
  -1.94700006E-02     1.00290825E-24
  -1.94600001E-02     1.00300854E-24
  -1.94499996E-02     1.00307865E-24
  -1.94400009E-02     1.00311819E-24
  -1.94300003E-02     1.00313170E-24
  -1.94199998E-02     1.00312608E-24
  -1.94099993E-02     1.00310892E-24
  -1.94000006E-02     1.00308585E-24
  -1.93900000E-02     1.00306050E-24
  -1.93799995E-02     1.00303457E-24
  -1.93700008E-02     1.00300874E-24
  -1.93600003E-02     1.00298231E-24
  -1.93499997E-02     1.00295223E-24
  -1.93399992E-02     1.00291328E-24
  -1.93300005E-02     1.00285836E-24
  -1.93200000E-02     1.00278115E-24
  -1.93099994E-02     1.00267860E-24
  -1.93000007E-02     1.00255179E-24
  -1.92900002E-02     1.00240644E-24
  -1.92799997E-02     1.00225103E-24
  -1.92699991E-02     1.00209484E-24
  -1.92600004E-02     1.00194673E-24
  -1.92499999E-02     1.00181489E-24
  -1.92399994E-02     1.00170751E-24
  -1.92300007E-02     1.00163099E-24
  -1.92200001E-02     1.00158849E-24
  -1.92099996E-02     1.00157853E-24
  -1.92000009E-02     1.00159372E-24
  -1.91900004E-02     1.00162231E-24
  -1.91799998E-02     1.00165081E-24
  -1.91699993E-02     1.00166747E-24
  -1.91600006E-02     1.00166402E-24
  -1.91500001E-02     1.00163661E-24
  -1.91399995E-02     1.00158464E-24
  -1.91300008E-02     1.00151020E-24
  -1.91200003E-02     1.00141800E-24
  -1.91099998E-02     1.00131692E-24
  -1.90999992E-02     1.00121970E-24
  -1.90900005E-02     1.00114081E-24
  -1.90800000E-02     1.00109456E-24
  -1.90699995E-02     1.00109072E-24
  -1.90600008E-02     1.00113342E-24
  -1.90500002E-02     1.00121980E-24
  -1.90399997E-02     1.00134236E-24
  -1.90299992E-02     1.00149057E-24
  -1.90200005E-02     1.00165239E-24
  -1.90099999E-02     1.00181470E-24
  -1.89999994E-02     1.00196379E-24
  -1.89900007E-02     1.00208666E-24
  -1.89800002E-02     1.00217284E-24
  -1.89699996E-02     1.00221692E-24
  -1.89599991E-02     1.00221997E-24
  -1.89500004E-02     1.00218931E-24
  -1.89399999E-02     1.00213655E-24
  -1.89299993E-02     1.00207522E-24
  -1.89200006E-02     1.00201802E-24
  -1.89100001E-02     1.00197543E-24
  -1.88999996E-02     1.00195531E-24
  -1.88900009E-02     1.00196280E-24
  -1.88800003E-02     1.00200037E-24
  -1.88699998E-02     1.00206674E-24
  -1.88599993E-02     1.00215637E-24
  -1.88500006E-02     1.00225951E-24
  -1.88400000E-02     1.00236453E-24
  -1.88299995E-02     1.00246028E-24
  -1.88200008E-02     1.00253818E-24
  -1.88100003E-02     1.00259340E-24
  -1.87999997E-02     1.00262486E-24
  -1.87899992E-02     1.00263422E-24
  -1.87800005E-02     1.00262505E-24
  -1.87700000E-02     1.00260208E-24
  -1.87599994E-02     1.00257180E-24
  -1.87500007E-02     1.00254252E-24
  -1.87400002E-02     1.00252349E-24
  -1.87299997E-02     1.00252319E-24
  -1.87199991E-02     1.00254715E-24
  -1.87100004E-02     1.00259616E-24
  -1.86999999E-02     1.00266716E-24
  -1.86899994E-02     1.00275472E-24
  -1.86800007E-02     1.00285274E-24
  -1.86700001E-02     1.00295509E-24
  -1.86599996E-02     1.00305646E-24
  -1.86500009E-02     1.00315093E-24
  -1.86400004E-02     1.00323208E-24
  -1.86299998E-02     1.00329371E-24
  -1.86199993E-02     1.00333128E-24
  -1.86100006E-02     1.00334331E-24
  -1.86000001E-02     1.00333138E-24
  -1.85899995E-02     1.00329913E-24
  -1.85800008E-02     1.00325013E-24
  -1.85700003E-02     1.00318712E-24
  -1.85599998E-02     1.00311188E-24
  -1.85499992E-02     1.00302668E-24
  -1.85400005E-02     1.00293478E-24
  -1.85300000E-02     1.00284061E-24
  -1.85199995E-02     1.00274841E-24
  -1.85100008E-02     1.00266134E-24
  -1.85000002E-02     1.00258058E-24
  -1.84899997E-02     1.00250603E-24
  -1.84799992E-02     1.00243652E-24
  -1.84700005E-02     1.00237114E-24
  -1.84599999E-02     1.00230911E-24
  -1.84499994E-02     1.00224837E-24
  -1.84400007E-02     1.00218467E-24
  -1.84300002E-02     1.00211131E-24
  -1.84199996E-02     1.00202059E-24
  -1.84099991E-02     1.00190630E-24
  -1.84000004E-02     1.00176460E-24
  -1.83899999E-02     1.00159480E-24
  -1.83799993E-02     1.00139818E-24
  -1.83700006E-02     1.00117799E-24
  -1.83600001E-02     1.00093906E-24
  -1.83499996E-02     1.00068909E-24
  -1.83400009E-02     1.00043912E-24
  -1.83300003E-02     1.00020305E-24
  -1.83199998E-02     9.99995977E-25
  -1.83099993E-02     9.99830710E-25
  -1.83000006E-02     9.99715142E-25
  -1.82900000E-02     9.99651442E-25
  -1.82799995E-02     9.99636059E-25
  -1.82700008E-02     9.99661007E-25
  -1.82600003E-02     9.99714748E-25
  -1.82499997E-02     9.99782097E-25
  -1.82399992E-02     9.99844515E-25
  -1.82300005E-02     9.99881690E-25
  -1.82200000E-02     9.99873506E-25
  -1.82099994E-02     9.99803593E-25
  -1.82000007E-02     9.99662288E-25
  -1.81900002E-02     9.99448606E-25
  -1.81799997E-02     9.99170236E-25
  -1.81699991E-02     9.98841577E-25
  -1.81600004E-02     9.98481364E-25
  -1.81499999E-02     9.98110599E-25
  -1.81399994E-02     9.97751076E-25
  -1.81300007E-02     9.97423600E-25
  -1.81200001E-02     9.97146512E-25
  -1.81099996E-02     9.96931252E-25
  -1.81000009E-02     9.96781073E-25
  -1.80900004E-02     9.96689565E-25
  -1.80799998E-02     9.96642233E-25
  -1.80699993E-02     9.96619455E-25
  -1.80600006E-02     9.96599437E-25
  -1.80500001E-02     9.96561276E-25
  -1.80399995E-02     9.96487222E-25
  -1.80300009E-02     9.96364061E-25
  -1.80200003E-02     9.96185187E-25
  -1.80099998E-02     9.95951388E-25
  -1.79999992E-02     9.95673216E-25
  -1.79900005E-02     9.95369307E-25
  -1.79800000E-02     9.95064906E-25
  -1.79699995E-02     9.94786536E-25
  -1.79600008E-02     9.94558851E-25
  -1.79500002E-02     9.94401572E-25
  -1.79399997E-02     9.94327912E-25
  -1.79299992E-02     9.94343295E-25
  -1.79200005E-02     9.94444762E-25
  -1.79099999E-02     9.94619594E-25
  -1.78999994E-02     9.94846391E-25
  -1.78900007E-02     9.95096657E-25
  -1.78800002E-02     9.95337852E-25
  -1.78699996E-02     9.95538321E-25
  -1.78599991E-02     9.95671244E-25
  -1.78500004E-02     9.95717195E-25
  -1.78399999E-02     9.95664539E-25
  -1.78299993E-02     9.95509429E-25
  -1.78200006E-02     9.95255317E-25
  -1.78100001E-02     9.94912853E-25
  -1.77999996E-02     9.94499095E-25
  -1.77900009E-02     9.94036428E-25
  -1.77800003E-02     9.93549504E-25
  -1.77699998E-02     9.93061396E-25
  -1.77599993E-02     9.92590446E-25
  -1.77500006E-02     9.92148191E-25
  -1.77400000E-02     9.91739758E-25
  -1.77299995E-02     9.91364655E-25
  -1.77200008E-02     9.91018542E-25
  -1.77100003E-02     9.90694616E-25
  -1.76999997E-02     9.90383016E-25
  -1.76899992E-02     9.90071909E-25
  -1.76800005E-02     9.89748772E-25
  -1.76700000E-02     9.89402955E-25
  -1.76599994E-02     9.89027655E-25
  -1.76500008E-02     9.88621194E-25
  -1.76400002E-02     9.88185841E-25
  -1.76299997E-02     9.87726626E-25
  -1.76199991E-02     9.87249759E-25
  -1.76100004E-02     9.86762046E-25
  -1.75999999E-02     9.86270783E-25
  -1.75899994E-02     9.85783859E-25
  -1.75800007E-02     9.85309359E-25
  -1.75700001E-02     9.84854482E-25
  -1.75599996E-02     9.84423271E-25
  -1.75500009E-02     9.84016120E-25
  -1.75400004E-02     9.83629677E-25
  -1.75299998E-02     9.83258616E-25
  -1.75199993E-02     9.82896628E-25
  -1.75100006E-02     9.82537104E-25
  -1.75000001E-02     9.82172453E-25
  -1.74899995E-02     9.81793800E-25
  -1.74800009E-02     9.81391185E-25
  -1.74700003E-02     9.80954847E-25
  -1.74599998E-02     9.80477093E-25
  -1.74499992E-02     9.79953190E-25
  -1.74400005E-02     9.79381956E-25
  -1.74300000E-02     9.78765462E-25
  -1.74199995E-02     9.78107749E-25
  -1.74100008E-02     9.77414735E-25
  -1.74000002E-02     9.76695491E-25
  -1.73899997E-02     9.75962146E-25
  -1.73799992E-02     9.75230576E-25
  -1.73700005E-02     9.74518136E-25
  -1.73599999E-02     9.73840899E-25
  -1.73499994E-02     9.73211585E-25
  -1.73400007E-02     9.72638280E-25
  -1.73300002E-02     9.72124239E-25
  -1.73199996E-02     9.71668968E-25
  -1.73099991E-02     9.71268818E-25
  -1.73000004E-02     9.70916986E-25
  -1.72899999E-02     9.70603118E-25
  -1.72799993E-02     9.70313310E-25
  -1.72700007E-02     9.70032476E-25
  -1.72600001E-02     9.69746809E-25
  -1.72499996E-02     9.69447535E-25
  -1.72400009E-02     9.69132188E-25
  -1.72300003E-02     9.68804614E-25
  -1.72199998E-02     9.68472898E-25
  -1.72099993E-02     9.68147690E-25
  -1.72000006E-02     9.67841612E-25
  -1.71900000E-02     9.67568863E-25
  -1.71799995E-02     9.67344827E-25
  -1.71700008E-02     9.67184096E-25
  -1.71600003E-02     9.67097124E-25
  -1.71499997E-02     9.67086672E-25
  -1.71399992E-02     9.67145048E-25
  -1.71300005E-02     9.67255587E-25
  -1.71200000E-02     9.67395116E-25
  -1.71099994E-02     9.67538196E-25
  -1.71000008E-02     9.67659582E-25
  -1.70900002E-02     9.67735609E-25
  -1.70799997E-02     9.67744187E-25
  -1.70699991E-02     9.67666583E-25
  -1.70600004E-02     9.67491062E-25
  -1.70499999E-02     9.67215256E-25
  -1.70399994E-02     9.66848732E-25
  -1.70300007E-02     9.66411308E-25
  -1.70200001E-02     9.65929807E-25
  -1.70099996E-02     9.65432529E-25
  -1.70000009E-02     9.64945605E-25
  -1.69900004E-02     9.64491122E-25
  -1.69799998E-02     9.64086930E-25
  -1.69699993E-02     9.63745944E-25
  -1.69600006E-02     9.63474478E-25
  -1.69500001E-02     9.63269473E-25
  -1.69399995E-02     9.63117222E-25
  -1.69300009E-02     9.62994949E-25
  -1.69200003E-02     9.62876423E-25
  -1.69099998E-02     9.62737189E-25
  -1.68999992E-02     9.62558807E-25
  -1.68900006E-02     9.62330235E-25
  -1.68800000E-02     9.62046442E-25
  -1.68699995E-02     9.61707035E-25
  -1.68600008E-02     9.61316746E-25
  -1.68500002E-02     9.60886225E-25
  -1.68399997E-02     9.60433222E-25
  -1.68299992E-02     9.59980711E-25
  -1.68200005E-02     9.59552163E-25
  -1.68099999E-02     9.59165226E-25
  -1.67999994E-02     9.58828383E-25
  -1.67900007E-02     9.58540547E-25
  -1.67800002E-02     9.58293732E-25
  -1.67699996E-02     9.58076401E-25
  -1.67599991E-02     9.57874847E-25
  -1.67500004E-02     9.57673096E-25
  -1.67399999E-02     9.57451821E-25
  -1.67299993E-02     9.57189919E-25
  -1.67200007E-02     9.56867866E-25
  -1.67100001E-02     9.56472055E-25
  -1.66999996E-02     9.55998049E-25
  -1.66900009E-02     9.55451368E-25
  -1.66800003E-02     9.54844241E-25
  -1.66699998E-02     9.54191557E-25
  -1.66599993E-02     9.53508699E-25
  -1.66500006E-02     9.52810656E-25
  -1.66400000E-02     9.52113796E-25
  -1.66299995E-02     9.51435869E-25
  -1.66200008E-02     9.50794130E-25
  -1.66100003E-02     9.50202682E-25
  -1.65999997E-02     9.49669412E-25
  -1.65899992E-02     9.49195898E-25
  -1.65800005E-02     9.48779380E-25
  -1.65700000E-02     9.48415912E-25
  -1.65599994E-02     9.48102340E-25
  -1.65500008E-02     9.47835705E-25
  -1.65400002E-02     9.47612063E-25
  -1.65299997E-02     9.47424511E-25
  -1.65199991E-02     9.47263288E-25
  -1.65100005E-02     9.47118039E-25
  -1.64999999E-02     9.46979593E-25
  -1.64899994E-02     9.46841148E-25
  -1.64800007E-02     9.46697083E-25
  -1.64700001E-02     9.46541578E-25
  -1.64599996E-02     9.46368128E-25
  -1.64500009E-02     9.46170715E-25
  -1.64400004E-02     9.45946481E-25
  -1.64299998E-02     9.45696906E-25
  -1.64199993E-02     9.45428200E-25
  -1.64100006E-02     9.45149929E-25
  -1.64000001E-02     9.44872053E-25
  -1.63899995E-02     9.44602756E-25
  -1.63800009E-02     9.44348742E-25
  -1.63700003E-02     9.44114746E-25
  -1.63599998E-02     9.43904416E-25
  -1.63499992E-02     9.43719330E-25
  -1.63400006E-02     9.43557712E-25
  -1.63300000E-02     9.43413055E-25
  -1.63199995E-02     9.43274511E-25
  -1.63100008E-02     9.43129065E-25
  -1.63000003E-02     9.42963996E-25
  -1.62899997E-02     9.42769739E-25
  -1.62799992E-02     9.42541363E-25
  -1.62700005E-02     9.42279462E-25
  -1.62599999E-02     9.41989555E-25
  -1.62499994E-02     9.41681406E-25
  -1.62400007E-02     9.41368722E-25
  -1.62300002E-02     9.41068659E-25
  -1.62199996E-02     9.40800643E-25
  -1.62099991E-02     9.40583608E-25
  -1.62000004E-02     9.40432640E-25
  -1.61899999E-02     9.40355627E-25
  -1.61799993E-02     9.40351683E-25
  -1.61700007E-02     9.40410946E-25
  -1.61600001E-02     9.40516949E-25
  -1.61499996E-02     9.40648787E-25
  -1.61400009E-02     9.40782598E-25
  -1.61300004E-02     9.40893630E-25
  -1.61199998E-02     9.40957133E-25
  -1.61099993E-02     9.40951907E-25
  -1.61000006E-02     9.40862766E-25
  -1.60900000E-02     9.40684089E-25
  -1.60799995E-02     9.40421398E-25
  -1.60700008E-02     9.40089879E-25
  -1.60600003E-02     9.39711719E-25
  -1.60499997E-02     9.39311668E-25
  -1.60399992E-02     9.38913984E-25
  -1.60300005E-02     9.38540557E-25
  -1.60200000E-02     9.38210024E-25
  -1.60099994E-02     9.37935500E-25
  -1.60000008E-02     9.37722311E-25
  -1.59900002E-02     9.37565623E-25
  -1.59799997E-02     9.37449956E-25
  -1.59699991E-02     9.37351349E-25
  -1.59600005E-02     9.37241007E-25
  -1.59499999E-02     9.37090532E-25
  -1.59399994E-02     9.36875962E-25
  -1.59300007E-02     9.36580336E-25
  -1.59200002E-02     9.36194090E-25
  -1.59099996E-02     9.35715350E-25
  -1.59000009E-02     9.35149934E-25
  -1.58900004E-02     9.34511548E-25
  -1.58799998E-02     9.33821689E-25
  -1.58699993E-02     9.33108460E-25
  -1.58600006E-02     9.32402331E-25
  -1.58500001E-02     9.31731898E-25
  -1.58399995E-02     9.31119150E-25
  -1.58300009E-02     9.30577992E-25
  -1.58200003E-02     9.30113747E-25
  -1.58099998E-02     9.29724642E-25
  -1.57999992E-02     9.29402688E-25
  -1.57900006E-02     9.29135560E-25
  -1.57800000E-02     9.28906691E-25
  -1.57699995E-02     9.28696756E-25
  -1.57600008E-02     9.28486524E-25
  -1.57500003E-02     9.28259332E-25
  -1.57399997E-02     9.28004333E-25
  -1.57299992E-02     9.27718371E-25
  -1.57200005E-02     9.27404996E-25
  -1.57099999E-02     9.27073379E-25
  -1.56999994E-02     9.26735450E-25
  -1.56900007E-02     9.26404129E-25
  -1.56800002E-02     9.26091543E-25
  -1.56699996E-02     9.25808637E-25
  -1.56599991E-02     9.25564978E-25
  -1.56500004E-02     9.25367861E-25
  -1.56399999E-02     9.25221429E-25
  -1.56299993E-02     9.25126076E-25
  -1.56199997E-02     9.25078349E-25
  -1.56100001E-02     9.25071348E-25
  -1.55999996E-02     9.25095902E-25
  -1.55900000E-02     9.25141853E-25
  -1.55800004E-02     9.25199440E-25
  -1.55699998E-02     9.25258999E-25
  -1.55600002E-02     9.25310866E-25
  -1.55499997E-02     9.25345872E-25
  -1.55400001E-02     9.25355338E-25
  -1.55300004E-02     9.25331475E-25
  -1.55199999E-02     9.25268465E-25
  -1.55100003E-02     9.25163251E-25
  -1.54999997E-02     9.25015536E-25
  -1.54900001E-02     9.24828379E-25
  -1.54799996E-02     9.24606808E-25
  -1.54700000E-02     9.24358218E-25
  -1.54600004E-02     9.24092076E-25
  -1.54499998E-02     9.23820314E-25
  -1.54400002E-02     9.23556341E-25
  -1.54299997E-02     9.23313470E-25
  -1.54200001E-02     9.23102943E-25
  -1.54100005E-02     9.22931859E-25
  -1.53999999E-02     9.22802584E-25
  -1.53900003E-02     9.22712260E-25
  -1.53799998E-02     9.22653391E-25
  -1.53700002E-02     9.22614737E-25
  -1.53599996E-02     9.22582196E-25
  -1.53500000E-02     9.22539598E-25
  -1.53400004E-02     9.22471066E-25
  -1.53299998E-02     9.22362893E-25
  -1.53200002E-02     9.22206403E-25
  -1.53099997E-02     9.21999721E-25
  -1.53000001E-02     9.21748666E-25
  -1.52899995E-02     9.21465958E-25
  -1.52799999E-02     9.21168853E-25
  -1.52700003E-02     9.20877369E-25
  -1.52599998E-02     9.20611819E-25
  -1.52500002E-02     9.20390248E-25
  -1.52399996E-02     9.20225869E-25
  -1.52300000E-02     9.20124599E-25
  -1.52200004E-02     9.20083479E-25
  -1.52099999E-02     9.20089889E-25
  -1.52000003E-02     9.20121936E-25
  -1.51899997E-02     9.20150237E-25
  -1.51800001E-02     9.20141362E-25
  -1.51699996E-02     9.20063068E-25
  -1.51600000E-02     9.19888039E-25
  -1.51500003E-02     9.19598034E-25
  -1.51399998E-02     9.19186150E-25
  -1.51300002E-02     9.18657712E-25
  -1.51199996E-02     9.18030370E-25
  -1.51100000E-02     9.17331933E-25
  -1.51000004E-02     9.16597996E-25
  -1.50899999E-02     9.15868201E-25
  -1.50800003E-02     9.15182484E-25
  -1.50699997E-02     9.14576441E-25
  -1.50600001E-02     9.14076599E-25
  -1.50499996E-02     9.13697749E-25
  -1.50400000E-02     9.13441172E-25
  -1.50300004E-02     9.13295134E-25
  -1.50199998E-02     9.13236857E-25
  -1.50100002E-02     9.13235871E-25
  -1.49999997E-02     9.13257663E-25
  -1.49900001E-02     9.13269003E-25
  -1.49800004E-02     9.13242478E-25
  -1.49699999E-02     9.13159351E-25
  -1.49600003E-02     9.13011834E-25
  -1.49499997E-02     9.12804561E-25
  -1.49400001E-02     9.12553999E-25
  -1.49299996E-02     9.12285589E-25
  -1.49200000E-02     9.12031280E-25
  -1.49100004E-02     9.11824599E-25
  -1.48999998E-02     9.11696803E-25
  -1.48900002E-02     9.11672349E-25
  -1.48799997E-02     9.11766026E-25
  -1.48700001E-02     9.11979709E-25
  -1.48600005E-02     9.12302155E-25
  -1.48499999E-02     9.12710588E-25
  -1.48400003E-02     9.13173255E-25
  -1.48299998E-02     9.13653080E-25
  -1.48200002E-02     9.14111112E-25
  -1.48099996E-02     9.14511360E-25
  -1.48000000E-02     9.14824637E-25
  -1.47900004E-02     9.15030727E-25
  -1.47799999E-02     9.15120558E-25
  -1.47700002E-02     9.15097188E-25
  -1.47599997E-02     9.14975211E-25
  -1.47500001E-02     9.14778784E-25
  -1.47399995E-02     9.14538182E-25
  -1.47299999E-02     9.14285549E-25
  -1.47200003E-02     9.14051060E-25
  -1.47099998E-02     9.13861043E-25
  -1.47000002E-02     9.13735121E-25
  -1.46899996E-02     9.13685719E-25
  -1.46800000E-02     9.13717569E-25
  -1.46700004E-02     9.13828108E-25
  -1.46599999E-02     9.14008067E-25
  -1.46500003E-02     9.14243838E-25
  -1.46399997E-02     9.14518953E-25
  -1.46300001E-02     9.14816157E-25
  -1.46199996E-02     9.15119474E-25
  -1.46100000E-02     9.15415888E-25
  -1.46000003E-02     9.15695934E-25
  -1.45899998E-02     9.15952807E-25
  -1.45800002E-02     9.16182365E-25
  -1.45699997E-02     9.16382933E-25
  -1.45600000E-02     9.16554806E-25
  -1.45500004E-02     9.16699168E-25
  -1.45399999E-02     9.16817102E-25
  -1.45300003E-02     9.16909202E-25
  -1.45199997E-02     9.16976354E-25
  -1.45100001E-02     9.17019445E-25
  -1.44999996E-02     9.17039561E-25
  -1.44900000E-02     9.17038476E-25
  -1.44800004E-02     9.17018459E-25
  -1.44699998E-02     9.16981383E-25
  -1.44600002E-02     9.16927740E-25
  -1.44499997E-02     9.16856348E-25
  -1.44400001E-02     9.16764051E-25
  -1.44300004E-02     9.16646314E-25
  -1.44199999E-02     9.16496430E-25
  -1.44100003E-02     9.16305033E-25
  -1.43999998E-02     9.16060585E-25
  -1.43900001E-02     9.15750760E-25
  -1.43799996E-02     9.15365302E-25
  -1.43700000E-02     9.14898198E-25
  -1.43600004E-02     9.14349348E-25
  -1.43499998E-02     9.13725063E-25
  -1.43400002E-02     9.13038360E-25
  -1.43299997E-02     9.12308664E-25
  -1.43200001E-02     9.11561612E-25
  -1.43100005E-02     9.10827972E-25
  -1.42999999E-02     9.10142254E-25
  -1.42900003E-02     9.09539959E-25
  -1.42799998E-02     9.09052443E-25
  -1.42700002E-02     9.08702386E-25
  -1.42599996E-02     9.08500240E-25
  -1.42500000E-02     9.08443245E-25
  -1.42400004E-02     9.08516215E-25
  -1.42299999E-02     9.08692920E-25
  -1.42200002E-02     9.08938058E-25
  -1.42099997E-02     9.09209525E-25
  -1.42000001E-02     9.09462256E-25
  -1.41899996E-02     9.09653062E-25
  -1.41799999E-02     9.09746246E-25
  -1.41700003E-02     9.09718833E-25
  -1.41599998E-02     9.09564710E-25
  -1.41500002E-02     9.09295018E-25
  -1.41399996E-02     9.08935692E-25
  -1.41300000E-02     9.08522920E-25
  -1.41200004E-02     9.08099203E-25
  -1.41099999E-02     9.07708816E-25
  -1.41000003E-02     9.07394159E-25
  -1.40899997E-02     9.07190337E-25
  -1.40800001E-02     9.07119931E-25
  -1.40699996E-02     9.07188365E-25
  -1.40600000E-02     9.07382227E-25
  -1.40500003E-02     9.07670753E-25
  -1.40399998E-02     9.08011048E-25
  -1.40300002E-02     9.08354498E-25
  -1.40199997E-02     9.08653378E-25
  -1.40100000E-02     9.08866272E-25
  -1.40000004E-02     9.08961625E-25
  -1.39899999E-02     9.08920900E-25
  -1.39800003E-02     9.08742125E-25
  -1.39699997E-02     9.08441865E-25
  -1.39600001E-02     9.08055914E-25
  -1.39499996E-02     9.07635057E-25
  -1.39400000E-02     9.07237767E-25
  -1.39300004E-02     9.06921927E-25
  -1.39199998E-02     9.06736545E-25
  -1.39100002E-02     9.06717217E-25