  -2.19999999E-02     1.00000002E-24
  -2.19899993E-02     1.00000002E-24
  -2.19800007E-02     1.00000002E-24
  -2.19700001E-02     1.00000002E-24
  -2.19599996E-02     1.00000002E-24
  -2.19500009E-02     1.00000002E-24
  -2.19400004E-02     1.00000002E-24
  -2.19299998E-02     1.00000002E-24
  -2.19199993E-02     1.00000002E-24
  -2.19100006E-02     1.00000002E-24
  -2.19000001E-02     1.00000002E-24
  -2.18899995E-02     1.00000002E-24
  -2.18800008E-02     1.00000002E-24
  -2.18700003E-02     1.00000002E-24
  -2.18599997E-02     1.00000002E-24
  -2.18499992E-02     1.00000002E-24
  -2.18400005E-02     1.00000002E-24
  -2.18300000E-02     1.00000002E-24
  -2.18199994E-02     1.00000002E-24
  -2.18100008E-02     1.00000002E-24
  -2.18000002E-02     1.00000002E-24
  -2.17899997E-02     1.00000002E-24
  -2.17799991E-02     1.00000002E-24
  -2.17700005E-02     1.00000002E-24
  -2.17599999E-02     1.00000002E-24
  -2.17499994E-02     1.00000002E-24
  -2.17400007E-02     1.00000002E-24
  -2.17300002E-02     1.00000002E-24
  -2.17199996E-02     1.00000002E-24
  -2.17099991E-02     1.00000002E-24
  -2.17000004E-02     1.00000002E-24
  -2.16899998E-02     1.00000002E-24
  -2.16799993E-02     1.00000002E-24
  -2.16700006E-02     1.00000002E-24
  -2.16600001E-02     1.00000002E-24
  -2.16499995E-02     1.00000002E-24
  -2.16400009E-02     1.00000002E-24
  -2.16300003E-02     1.00000002E-24
  -2.16199998E-02     1.00000002E-24
  -2.16099992E-02     1.00000002E-24
  -2.16000006E-02     1.00000002E-24
  -2.15900000E-02     1.00000002E-24
  -2.15799995E-02     1.00000002E-24
  -2.15700008E-02     1.00000002E-24
  -2.15600003E-02     1.00000002E-24
  -2.15499997E-02     1.00000002E-24
  -2.15399992E-02     1.00000002E-24
  -2.15300005E-02     1.00000002E-24
  -2.15200000E-02     1.00000002E-24
  -2.15099994E-02     1.00000002E-24
  -2.15000007E-02     1.00000002E-24
  -2.14900002E-02     1.00000002E-24
  -2.14799996E-02     1.00000002E-24
  -2.14699991E-02     1.00000002E-24
  -2.14600004E-02     1.00000002E-24
  -2.14499999E-02     1.00000002E-24
  -2.14399993E-02     1.00000012E-24
  -2.14300007E-02     1.00000022E-24
  -2.14200001E-02     1.00000032E-24
  -2.14099996E-02     1.00000041E-24
  -2.14000009E-02     1.00000051E-24
  -2.13900004E-02     1.00000051E-24
  -2.13799998E-02     1.00000051E-24
  -2.13699993E-02     1.00000051E-24
  -2.13600006E-02     1.00000051E-24
  -2.13500001E-02     1.00000051E-24
  -2.13399995E-02     1.00000051E-24
  -2.13300008E-02     1.00000051E-24
  -2.13200003E-02     1.00000051E-24
  -2.13099997E-02     1.00000051E-24
  -2.12999992E-02     1.00000051E-24
  -2.12900005E-02     1.00000051E-24
  -2.12800000E-02     1.00000051E-24
  -2.12699994E-02     1.00000051E-24
  -2.12600008E-02     1.00000051E-24
  -2.12500002E-02     1.00000041E-24
  -2.12399997E-02     1.00000032E-24
  -2.12299991E-02     1.00000022E-24
  -2.12200005E-02     1.00000022E-24
  -2.12099999E-02     1.00000022E-24
  -2.11999994E-02     1.00000022E-24
  -2.11900007E-02     1.00000022E-24
  -2.11800002E-02     1.00000022E-24
  -2.11699996E-02     1.00000022E-24
  -2.11599991E-02     1.00000022E-24
  -2.11500004E-02     1.00000022E-24
  -2.11399999E-02     1.00000022E-24
  -2.11299993E-02     1.00000032E-24
  -2.11200006E-02     1.00000041E-24
  -2.11100001E-02     1.00000051E-24
  -2.10999995E-02     1.00000061E-24
  -2.10900009E-02     1.00000071E-24
  -2.10800003E-02     1.00000081E-24
  -2.10699998E-02     1.00000091E-24
  -2.10599992E-02     1.00000101E-24
  -2.10500006E-02     1.00000110E-24
  -2.10400000E-02     1.00000120E-24
  -2.10299995E-02     1.00000130E-24
  -2.10200008E-02     1.00000140E-24
  -2.10100003E-02     1.00000150E-24
  -2.09999997E-02     1.00000160E-24
  -2.09899992E-02     1.00000160E-24
  -2.09800005E-02     1.00000160E-24
  -2.09700000E-02     1.00000160E-24
  -2.09599994E-02     1.00000150E-24
  -2.09500007E-02     1.00000140E-24
  -2.09400002E-02     1.00000120E-24
  -2.09299996E-02     1.00000091E-24
  -2.09199991E-02     1.00000061E-24
  -2.09100004E-02     1.00000022E-24
  -2.08999999E-02     9.99999822E-25
  -2.08899993E-02     9.99999329E-25
  -2.08800007E-02     9.99998738E-25
  -2.08700001E-02     9.99998146E-25
  -2.08599996E-02     9.99997554E-25
  -2.08500009E-02     9.99996864E-25
  -2.08400004E-02     9.99996174E-25
  -2.08299998E-02     9.99995484E-25
  -2.08199993E-02     9.99994892E-25
  -2.08100006E-02     9.99994300E-25
  -2.08000001E-02     9.99993807E-25
  -2.07899995E-02     9.99993511E-25
  -2.07800008E-02     9.99993314E-25
  -2.07700003E-02     9.99993314E-25
  -2.07599998E-02     9.99993413E-25
  -2.07499992E-02     9.99993709E-25
  -2.07400005E-02     9.99994202E-25
  -2.07300000E-02     9.99994991E-25
  -2.07199994E-02     9.99995977E-25
  -2.07100008E-02     9.99997160E-25
  -2.07000002E-02     9.99998639E-25
  -2.06899997E-02     1.00000032E-24
  -2.06799991E-02     1.00000219E-24
  -2.06700005E-02     1.00000426E-24
  -2.06599999E-02     1.00000653E-24
  -2.06499994E-02     1.00000899E-24
  -2.06400007E-02     1.00001146E-24
  -2.06300002E-02     1.00001392E-24
  -2.06199996E-02     1.00001639E-24
  -2.06099991E-02     1.00001885E-24
  -2.06000004E-02     1.00002092E-24
  -2.05899999E-02     1.00002290E-24
  -2.05799993E-02     1.00002457E-24
  -2.05700006E-02     1.00002585E-24
  -2.05600001E-02     1.00002674E-24
  -2.05499995E-02     1.00002704E-24
  -2.05400009E-02     1.00002674E-24
  -2.05300003E-02     1.00002576E-24
  -2.05199998E-02     1.00002398E-24
  -2.05099992E-02     1.00002152E-24
  -2.05000006E-02     1.00001836E-24
  -2.04900000E-02     1.00001432E-24
  -2.04799995E-02     1.00000949E-24
  -2.04700008E-02     1.00000387E-24
  -2.04600003E-02     9.99997456E-25
  -2.04499997E-02     9.99990553E-25
  -2.04399992E-02     9.99983059E-25
  -2.04300005E-02     9.99975269E-25
  -2.04200000E-02     9.99967183E-25
  -2.04099994E-02     9.99958999E-25
  -2.04000007E-02     9.99950814E-25
  -2.03900002E-02     9.99943024E-25
  -2.03799997E-02     9.99935727E-25
  -2.03699991E-02     9.99929219E-25
  -2.03600004E-02     9.99923599E-25
  -2.03499999E-02     9.99919161E-25
  -2.03399993E-02     9.99916104E-25
  -2.03300007E-02     9.99914625E-25
  -2.03200001E-02     9.99914921E-25
  -2.03099996E-02     9.99917091E-25
  -2.03000009E-02     9.99921232E-25
  -2.02900004E-02     9.99927543E-25
  -2.02799998E-02     9.99935925E-25
  -2.02699993E-02     9.99946574E-25
  -2.02600006E-02     9.99959393E-25
  -2.02500001E-02     9.99974086E-25
  -2.02399995E-02     9.99990553E-25
  -2.02300008E-02     1.00000870E-24
  -2.02200003E-02     1.00002822E-24
  -2.02099998E-02     1.00004863E-24
  -2.01999992E-02     1.00006974E-24
  -2.01900005E-02     1.00009103E-24
  -2.01800000E-02     1.00011224E-24
  -2.01699995E-02     1.00013265E-24
  -2.01600008E-02     1.00015188E-24
  -2.01500002E-02     1.00016943E-24
  -2.01399997E-02     1.00018481E-24
  -2.01299991E-02     1.00019733E-24
  -2.01200005E-02     1.00020690E-24
  -2.01099999E-02     1.00021281E-24
  -2.00999994E-02     1.00021469E-24
  -2.00900007E-02     1.00021222E-24
  -2.00800002E-02     1.00020522E-24
  -2.00699996E-02     1.00019349E-24
  -2.00599991E-02     1.00017672E-24
  -2.00500004E-02     1.00015503E-24
  -2.00399999E-02     1.00012870E-24
  -2.00299993E-02     1.00009764E-24
  -2.00200006E-02     1.00006234E-24
  -2.00100001E-02     1.00002319E-24
  -1.99999996E-02     9.99980791E-25
  -1.99900009E-02     9.99935826E-25
  -1.99800003E-02     9.99889086E-25
  -1.99699998E-02     9.99841360E-25
  -1.99599992E-02     9.99793535E-25
  -1.99500006E-02     9.99746499E-25
  -1.99400000E-02     9.99701534E-25
  -1.99299995E-02     9.99659527E-25
  -1.99200008E-02     9.99621761E-25
  -1.99100003E-02     9.99589220E-25
  -1.98999997E-02     9.99562991E-25
  -1.98899992E-02     9.99543959E-25
  -1.98800005E-02     9.99533112E-25
  -1.98700000E-02     9.99531338E-25
  -1.98599994E-02     9.99539226E-25
  -1.98500007E-02     9.99557370E-25
  -1.98400002E-02     9.99586262E-25
  -1.98299997E-02     9.99625902E-25
  -1.98199991E-02     9.99676587E-25
  -1.98100004E-02     9.99737822E-25
  -1.97999999E-02     9.99809411E-25
  -1.97899994E-02     9.99890664E-25
  -1.97800007E-02     9.99980495E-25
  -1.97700001E-02     1.00007812E-24
  -1.97599996E-02     1.00018215E-24
  -1.97500009E-02     1.00029101E-24
  -1.97400004E-02     1.00040303E-24
  -1.97299998E-02     1.00051633E-24
  -1.97199993E-02     1.00062884E-24
  -1.97100006E-02     1.00073859E-24
  -1.97000001E-02     1.00084321E-24
  -1.96899995E-02     1.00094064E-24
  -1.96800008E-02     1.00102869E-24
  -1.96700003E-02     1.00110492E-24
  -1.96599998E-02     1.00116734E-24
  -1.96499992E-02     1.00121378E-24
  -1.96400005E-02     1.00124257E-24
  -1.96300000E-02     1.00125194E-24
  -1.96199995E-02     1.00124050E-24
  -1.96100008E-02     1.00120698E-24
  -1.96000002E-02     1.00115057E-24
  -1.95899997E-02     1.00107070E-24
  -1.95799991E-02     1.00096716E-24
  -1.95700005E-02     1.00084016E-24
  -1.95599999E-02     1.00069027E-24
  -1.95499994E-02     1.00051830E-24
  -1.95400007E-02     1.00032562E-24
  -1.95300002E-02     1.00011401E-24
  -1.95199996E-02     9.99885635E-25
  -1.95099991E-02     9.99642961E-25
  -1.95000004E-02     9.99388554E-25
  -1.94899999E-02     9.99125764E-25
  -1.94799993E-02     9.98857848E-25
  -1.94700006E-02     9.98588550E-25
  -1.94600001E-02     9.98321422E-25
  -1.94499996E-02     9.98060506E-25
  -1.94400009E-02     9.97809846E-25
  -1.94300003E-02     9.97573582E-25
  -1.94199998E-02     9.97355462E-25
  -1.94099993E-02     9.97159627E-25
  -1.94000006E-02     9.96989825E-25
  -1.93900000E-02     9.96849605E-25
  -1.93799995E-02     9.96742320E-25
  -1.93700008E-02     9.96671027E-25
  -1.93600003E-02     9.96638387E-25
  -1.93499997E-02     9.96646769E-25
  -1.93399992E-02     9.96697848E-25
  -1.93300005E-02     9.96793004E-25
  -1.93200000E-02     9.96933126E-25
  -1.93099994E-02     9.97118311E-25
  -1.93000007E-02     9.97348461E-25
  -1.92900002E-02     9.97622886E-25
  -1.92799997E-02     9.97939811E-25
  -1.92699991E-02     9.98297460E-25
  -1.92600004E-02     9.98693370E-25
  -1.92499999E-02     9.99124285E-25
  -1.92399994E-02     9.99586755E-25
  -1.92300007E-02     1.00007664E-24
  -1.92200001E-02     1.00058930E-24
  -1.92099996E-02     1.00112000E-24
  -1.92000009E-02     1.00166343E-24
  -1.91900004E-02     1.00221376E-24
  -1.91799998E-02     1.00276527E-24
  -1.91699993E-02     1.00331195E-24
  -1.91600006E-02     1.00384739E-24
  -1.91500001E-02     1.00436548E-24
  -1.91399995E-02     1.00485970E-24
  -1.91300008E-02     1.00532394E-24
  -1.91200003E-02     1.00575200E-24
  -1.91099998E-02     1.00613765E-24
  -1.90999992E-02     1.00647519E-24
  -1.90900005E-02     1.00675908E-24
  -1.90800000E-02     1.00698400E-24
  -1.90699995E-02     1.00714493E-24
  -1.90600008E-02     1.00723752E-24
  -1.90500002E-02     1.00725774E-24
  -1.90399997E-02     1.00720212E-24
  -1.90299992E-02     1.00706733E-24
  -1.90200005E-02     1.00685098E-24
  -1.90099999E-02     1.00655102E-24
  -1.89999994E-02     1.00616625E-24
  -1.89900007E-02     1.00569569E-24
  -1.89800002E-02     1.00513915E-24
  -1.89699996E-02     1.00449692E-24
  -1.89599991E-02     1.00377018E-24
  -1.89500004E-02     1.00296032E-24
  -1.89399999E-02     1.00206950E-24
  -1.89299993E-02     1.00110048E-24
  -1.89200006E-02     1.00005652E-24
  -1.89100001E-02     9.98941664E-25
  -1.88999996E-02     9.97760148E-25
  -1.88900009E-02     9.96516903E-25
  -1.88800003E-02     9.95217452E-25
  -1.88699998E-02     9.93867711E-25
  -1.88599993E-02     9.92473892E-25
  -1.88500006E-02     9.91042800E-25
  -1.88400000E-02     9.89581731E-25
  -1.88299995E-02     9.88098179E-25
  -1.88200008E-02     9.86599837E-25
  -1.88100003E-02     9.85094887E-25
  -1.87999997E-02     9.83591910E-25
  -1.87899992E-02     9.82099286E-25
  -1.87800005E-02     9.80625892E-25
  -1.87700000E-02     9.79180698E-25
  -1.87599994E-02     9.77772680E-25
  -1.87500007E-02     9.76410909E-25
  -1.87400002E-02     9.75104555E-25
  -1.87299997E-02     9.73862297E-25
  -1.87199991E-02     9.72693303E-25
  -1.87100004E-02     9.71606253E-25
  -1.86999999E-02     9.70609725E-25
  -1.86899994E-02     9.69711902E-25
  -1.86800007E-02     9.68920675E-25
  -1.86700001E-02     9.68243635E-25
  -1.86599996E-02     9.67688080E-25
  -1.86500009E-02     9.67260517E-25
  -1.86400004E-02     9.66966962E-25
  -1.86299998E-02     9.66812838E-25
  -1.86199993E-02     9.66802978E-25
  -1.86100006E-02     9.66941423E-25
  -1.86000001E-02     9.67231329E-25
  -1.85899995E-02     9.67674965E-25
  -1.85800008E-02     9.68273907E-25
  -1.85700003E-02     9.69028552E-25
  -1.85599998E-02     9.69938404E-25
  -1.85499992E-02     9.71002084E-25
  -1.85400005E-02     9.72216831E-25
  -1.85300000E-02     9.73579293E-25
  -1.85199995E-02     9.75084242E-25
  -1.85100008E-02     9.76726158E-25
  -1.85000002E-02     9.78497643E-25
  -1.84899997E-02     9.80390910E-25
  -1.84799992E-02     9.82396490E-25
  -1.84700005E-02     9.84504129E-25
  -1.84599999E-02     9.86702487E-25
  -1.84499994E-02     9.88979140E-25
  -1.84400007E-02     9.91321070E-25
  -1.84300002E-02     9.93713883E-25
  -1.84199996E-02     9.96142786E-25
  -1.84099991E-02     9.98592001E-25
  -1.84000004E-02     1.00104556E-24
  -1.83899999E-02     1.00348629E-24
  -1.83799993E-02     1.00589715E-24
  -1.83700006E-02     1.00826058E-24
  -1.83600001E-02     1.01055902E-24
  -1.83499996E-02     1.01277464E-24
  -1.83400009E-02     1.01488977E-24
  -1.83300003E-02     1.01688707E-24
  -1.83199998E-02     1.01874957E-24
  -1.83099993E-02     1.02046061E-24
  -1.83000006E-02     1.02200431E-24
  -1.82900000E-02     1.02336559E-24
  -1.82799995E-02     1.02453014E-24
  -1.82700008E-02     1.02548486E-24
  -1.82600003E-02     1.02621781E-24
  -1.82499997E-02     1.02671844E-24
  -1.82399992E-02     1.02697729E-24
  -1.82300005E-02     1.02698656E-24
  -1.82200000E-02     1.02674023E-24
  -1.82099994E-02     1.02623398E-24
  -1.82000007E-02     1.02546494E-24
  -1.81900002E-02     1.02443232E-24
  -1.81799997E-02     1.02313731E-24
  -1.81699991E-02     1.02158286E-24
  -1.81600004E-02     1.01977361E-24
  -1.81499999E-02     1.01771655E-24
  -1.81399994E-02     1.01542028E-24
  -1.81300007E-02     1.01289533E-24
  -1.81200001E-02     1.01015424E-24
  -1.81099996E-02     1.00721110E-24
  -1.81000009E-02     1.00408178E-24
  -1.80900004E-02     1.00078375E-24
  -1.80799998E-02     9.97336036E-25
  -1.80699993E-02     9.93759045E-25
  -1.80600006E-02     9.90074177E-25
  -1.80500001E-02     9.86304112E-25
  -1.80399995E-02     9.82472319E-25
  -1.80300009E-02     9.78603154E-25
  -1.80200003E-02     9.74721563E-25
  -1.80099998E-02     9.70852595E-25
  -1.79999992E-02     9.67021788E-25
  -1.79900005E-02     9.63254484E-25
  -1.79800000E-02     9.59576026E-25
  -1.79699995E-02     9.56011262E-25
  -1.79600008E-02     9.52584352E-25
  -1.79500002E-02     9.49318763E-25
  -1.79399997E-02     9.46236979E-25
  -1.79299992E-02     9.43360300E-25
  -1.79200005E-02     9.40708938E-25
  -1.79099999E-02     9.38301335E-25
  -1.78999994E-02     9.36154548E-25
  -1.78900007E-02     9.34283666E-25
  -1.78800002E-02     9.32702099E-25
  -1.78699996E-02     9.31421383E-25
  -1.78599991E-02     9.30450591E-25
  -1.78500004E-02     9.29797217E-25
  -1.78399999E-02     9.29466092E-25
  -1.78299993E-02     9.29460176E-25
  -1.78200006E-02     9.29780059E-25
  -1.78100001E-02     9.30424164E-25
  -1.77999996E-02     9.31388744E-25
  -1.77900009E-02     9.32667882E-25
  -1.77800003E-02     9.34253788E-25
  -1.77699998E-02     9.36136306E-25
  -1.77599993E-02     9.38303701E-25
  -1.77500006E-02     9.40742465E-25
  -1.77400000E-02     9.43437312E-25
  -1.77299995E-02     9.46371283E-25
  -1.77200008E-02     9.49526628E-25
  -1.77100003E-02     9.52883921E-25
  -1.76999997E-02     9.56422751E-25
  -1.76899992E-02     9.60121917E-25
  -1.76800005E-02     9.63959824E-25
  -1.76700000E-02     9.67914187E-25
  -1.76599994E-02     9.71962227E-25
  -1.76500008E-02     9.76081264E-25
  -1.76400002E-02     9.80248619E-25
  -1.76299997E-02     9.84441908E-25
  -1.76199991E-02     9.88638746E-25
  -1.76100004E-02     9.92817540E-25
  -1.75999999E-02     9.96957383E-25
  -1.75899994E-02     1.00103806E-24
  -1.75800007E-02     1.00504015E-24
  -1.75700001E-02     1.00894521E-24
  -1.75599996E-02     1.01273608E-24
  -1.75500009E-02     1.01639649E-24
  -1.75400004E-02     1.01991146E-24
  -1.75299998E-02     1.02326718E-24
  -1.75199993E-02     1.02645112E-24
  -1.75100006E-02     1.02945204E-24
  -1.75000001E-02     1.03225999E-24
  -1.74899995E-02     1.03486609E-24
  -1.74800009E-02     1.03726285E-24
  -1.74700003E-02     1.03944385E-24
  -1.74599998E-02     1.04140378E-24
  -1.74499992E-02     1.04313848E-24
  -1.74400005E-02     1.04464491E-24
  -1.74300000E-02     1.04592060E-24
  -1.74199995E-02     1.04696426E-24
  -1.74100008E-02     1.04777531E-24
  -1.74000002E-02     1.04835384E-24
  -1.73899997E-02     1.04870074E-24
  -1.73799992E-02     1.04881739E-24
  -1.73700005E-02     1.04870577E-24
  -1.73599999E-02     1.04836814E-24
  -1.73499994E-02     1.04780736E-24
  -1.73400007E-02     1.04702668E-24
  -1.73300002E-02     1.04602966E-24
  -1.73199996E-02     1.04482034E-24
  -1.73099991E-02     1.04340275E-24
  -1.73000004E-02     1.04178154E-24
  -1.72899999E-02     1.03996154E-24
  -1.72799993E-02     1.03794817E-24
  -1.72700007E-02     1.03574676E-24
  -1.72600001E-02     1.03336341E-24
  -1.72499996E-02     1.03080464E-24
  -1.72400009E-02     1.02807706E-24
  -1.72300003E-02     1.02518835E-24
  -1.72199998E-02     1.02214630E-24
  -1.72099993E-02     1.01895960E-24
  -1.72000006E-02     1.01563741E-24
  -1.71900000E-02     1.01218989E-24
  -1.71799995E-02     1.00862779E-24
  -1.71700008E-02     1.00496255E-24
  -1.71600003E-02     1.00120678E-24
  -1.71499997E-02     9.97373803E-25
  -1.71399992E-02     9.93477816E-25
  -1.71300005E-02     9.89533906E-25
  -1.71200000E-02     9.85558343E-25
  -1.71099994E-02     9.81567989E-25
  -1.71000008E-02     9.77580494E-25
  -1.70900002E-02     9.73614693E-25
  -1.70799997E-02     9.69689913E-25
  -1.70699991E-02     9.65826269E-25
  -1.70600004E-02     9.62044372E-25
  -1.70499999E-02     9.58365519E-25
  -1.70399994E-02     9.54811207E-25
  -1.70300007E-02     9.51403230E-25
  -1.70200001E-02     9.48163476E-25
  -1.70099996E-02     9.45113937E-25
  -1.70000009E-02     9.42276109E-25
  -1.69900004E-02     9.39671290E-25
  -1.69799998E-02     9.37319992E-25
  -1.69699993E-02     9.35242428E-25
  -1.69600006E-02     9.33457433E-25
  -1.69500001E-02     9.31982953E-25
  -1.69399995E-02     9.30835555E-25
  -1.69300009E-02     9.30030227E-25
  -1.69200003E-02     9.29580576E-25
  -1.69099998E-02     9.29498140E-25
  -1.68999992E-02     9.29792681E-25
  -1.68900006E-02     9.30471594E-25
  -1.68800000E-02     9.31540205E-25
  -1.68699995E-02     9.33001471E-25
  -1.68600008E-02     9.34855787E-25
  -1.68500002E-02     9.37101280E-25
  -1.68399997E-02     9.39733019E-25
  -1.68299992E-02     9.42743805E-25
  -1.68200005E-02     9.46123679E-25
  -1.68099999E-02     9.49860020E-25
  -1.67999994E-02     9.53937544E-25
  -1.67900007E-02     9.58338500E-25
  -1.67800002E-02     9.63042774E-25
  -1.67699996E-02     9.68027586E-25
  -1.67599991E-02     9.73267989E-25
  -1.67500004E-02     9.78736964E-25
  -1.67399999E-02     9.84405620E-25
  -1.67299993E-02     9.90243092E-25
  -1.67200007E-02     9.96217037E-25
  -1.67100001E-02     1.00229373E-24
  -1.66999996E-02     1.00843817E-24
  -1.66900009E-02     1.01461475E-24
  -1.66800003E-02     1.02078700E-24
  -1.66699998E-02     1.02691802E-24
  -1.66599993E-02     1.03297086E-24
  -1.66500006E-02     1.03890871E-24
  -1.66400000E-02     1.04469530E-24
  -1.66299995E-02     1.05029454E-24
  -1.66200008E-02     1.05567191E-24
  -1.66100003E-02     1.06079349E-24
  -1.65999997E-02     1.06562733E-24
  -1.65899992E-02     1.07014277E-24
  -1.65800005E-02     1.07431111E-24
  -1.65700000E-02     1.07810593E-24
  -1.65599994E-02     1.08150296E-24
  -1.65500008E-02     1.08448022E-24
  -1.65400002E-02     1.08701867E-24
  -1.65299997E-02     1.08910215E-24
  -1.65199991E-02     1.09071695E-24
  -1.65100005E-02     1.09185262E-24
  -1.64999999E-02     1.09250175E-24
  -1.64899994E-02     1.09266002E-24
  -1.64800007E-02     1.09232603E-24
  -1.64700001E-02     1.09150177E-24
  -1.64599996E-02     1.09019216E-24
  -1.64500009E-02     1.08840510E-24
  -1.64400004E-02     1.08615142E-24
  -1.64299998E-02     1.08344513E-24
  -1.64199993E-02     1.08030271E-24
  -1.64100006E-02     1.07674317E-24
  -1.64000001E-02     1.07278822E-24
  -1.63899995E-02     1.06846161E-24
  -1.63800009E-02     1.06378938E-24
  -1.63700003E-02     1.05879934E-24
  -1.63599998E-02     1.05352098E-24
  -1.63499992E-02     1.04798544E-24
  -1.63400006E-02     1.04222498E-24
  -1.63300000E-02     1.03627283E-24
  -1.63199995E-02     1.03016291E-24
  -1.63100008E-02     1.02393002E-24
  -1.63000003E-02     1.01760878E-24
  -1.62899997E-02     1.01123429E-24
  -1.62799992E-02     1.00484136E-24
  -1.62700005E-02     9.98464403E-25
  -1.62599999E-02     9.92137147E-25
  -1.62499994E-02     9.85892721E-25
  -1.62400007E-02     9.79763371E-25
  -1.62300002E-02     9.73779861E-25
  -1.62199996E-02     9.67972070E-25
  -1.62099991E-02     9.62368002E-25
  -1.62000004E-02     9.56994577E-25
  -1.61899999E-02     9.51876645E-25
  -1.61799993E-02     9.47037476E-25
  -1.61700007E-02     9.42498469E-25
  -1.61600001E-02     9.38279148E-25
  -1.61499996E-02     9.34396769E-25
  -1.61400009E-02     9.30867011E-25
  -1.61300004E-02     9.27703383E-25
  -1.61199998E-02     9.24917225E-25
  -1.61099993E-02     9.22518101E-25
  -1.61000006E-02     9.20513409E-25
  -1.60900000E-02     9.18908668E-25
  -1.60799995E-02     9.17707430E-25
  -1.60700008E-02     9.16911667E-25
  -1.60600003E-02     9.16521181E-25
  -1.60499997E-02     9.16534296E-25
  -1.60399992E-02     9.16947363E-25
  -1.60300005E-02     9.17755452E-25
  -1.60200000E-02     9.18952154E-25
  -1.60099994E-02     9.20529284E-25
  -1.60000008E-02     9.22477672E-25
  -1.59900002E-02     9.24786570E-25
  -1.59799997E-02     9.27444143E-25
  -1.59699991E-02     9.30437377E-25
  -1.59600005E-02     9.33752368E-25
  -1.59499999E-02     9.37373831E-25
  -1.59399994E-02     9.41285793E-25
  -1.59300007E-02     9.45471291E-25
  -1.59200002E-02     9.49912677E-25
  -1.59099996E-02     9.54591115E-25
  -1.59000009E-02     9.59487279E-25
  -1.58900004E-02     9.64581348E-25
  -1.58799998E-02     9.69852517E-25
  -1.58699993E-02     9.75279387E-25
  -1.58600006E-02     9.80840067E-25
  -1.58500001E-02     9.86512174E-25
  -1.58399995E-02     9.92273028E-25
  -1.58300009E-02     9.98098963E-25
  -1.58200003E-02     1.00396661E-24
  -1.58099998E-02     1.00985191E-24
  -1.57999992E-02     1.01573069E-24
  -1.57900006E-02     1.02157832E-24
  -1.57800000E-02     1.02737063E-24
  -1.57699995E-02     1.03308307E-24
  -1.57600008E-02     1.03869108E-24
  -1.57500003E-02     1.04417051E-24
  -1.57399997E-02     1.04949729E-24
  -1.57299992E-02     1.05464777E-24
  -1.57200005E-02     1.05959866E-24
  -1.57099999E-02     1.06432729E-24
  -1.56999994E-02     1.06881186E-24
  -1.56900007E-02     1.07303128E-24
  -1.56800002E-02     1.07696543E-24
  -1.56699996E-02     1.08059508E-24
  -1.56599991E-02     1.08390248E-24
  -1.56500004E-02     1.08687116E-24
  -1.56399999E-02     1.08948584E-24
  -1.56299993E-02     1.09173320E-24
  -1.56199997E-02     1.09360132E-24
  -1.56100001E-02     1.09508014E-24
  -1.55999996E-02     1.09616177E-24
  -1.55900000E-02     1.09683980E-24
  -1.55800004E-02     1.09711037E-24
  -1.55699998E-02     1.09697134E-24
  -1.55600002E-02     1.09642318E-24
  -1.55499997E-02     1.09546797E-24
  -1.55400001E-02     1.09411063E-24
  -1.55300004E-02     1.09235798E-24
  -1.55199999E-02     1.09021918E-24
  -1.55100003E-02     1.08770557E-24
  -1.54999997E-02     1.08483047E-24
  -1.54900001E-02     1.08160975E-24
  -1.54799996E-02     1.07806067E-24
  -1.54700000E-02     1.07420294E-24
  -1.54600004E-02     1.07005767E-24
  -1.54499998E-02     1.06564794E-24
  -1.54400002E-02     1.06099829E-24
  -1.54299997E-02     1.05613467E-24
  -1.54200001E-02     1.05108429E-24
  -1.54100005E-02     1.04587524E-24
  -1.53999999E-02     1.04053672E-24
  -1.53900003E-02     1.03509841E-24
  -1.53799998E-02     1.02959088E-24
  -1.53700002E-02     1.02404460E-24
  -1.53599996E-02     1.01849023E-24
  -1.53500000E-02     1.01295874E-24
  -1.53400004E-02     1.00748029E-24
  -1.53299998E-02     1.00208478E-24
  -1.53200002E-02     9.96801386E-25
  -1.53099997E-02     9.91658703E-25
  -1.53000001E-02     9.86683949E-25
  -1.52899995E-02     9.81903353E-25
  -1.52799999E-02     9.77341962E-25
  -1.52700003E-02     9.73023146E-25
  -1.52599998E-02     9.68968500E-25
  -1.52500002E-02     9.65198632E-25
  -1.52399996E-02     9.61731588E-25
  -1.52300000E-02     9.58584033E-25
  -1.52200004E-02     9.55770462E-25
  -1.52099999E-02     9.53303694E-25
  -1.52000003E-02     9.51193984E-25
  -1.51899997E-02     9.49450010E-25
  -1.51800001E-02     9.48078279E-25
  -1.51699996E-02     9.47083131E-25
  -1.51600000E-02     9.46466932E-25
  -1.51500003E-02     9.46229978E-25
  -1.51399998E-02     9.46370691E-25
  -1.51300002E-02     9.46885620E-25
  -1.51199996E-02     9.47769243E-25
  -1.51100000E-02     9.49014263E-25
  -1.51000004E-02     9.50611805E-25
  -1.50899999E-02     9.52551417E-25
  -1.50800003E-02     9.54820969E-25
  -1.50699997E-02     9.57406855E-25
  -1.50600001E-02     9.60294382E-25
  -1.50499996E-02     9.63467575E-25
  -1.50400000E-02     9.66909080E-25
  -1.50300004E-02     9.70600850E-25
  -1.50199998E-02     9.74523954E-25
  -1.50100002E-02     9.78658768E-25
  -1.49999997E-02     9.82984783E-25
  -1.49900001E-02     9.87480994E-25
  -1.49800004E-02     9.92126300E-25
  -1.49699999E-02     9.96898909E-25
  -1.49600003E-02     1.00177693E-24
  -1.49499997E-02     1.00673837E-24
  -1.49400001E-02     1.01176115E-24
  -1.49299996E-02     1.01682317E-24
  -1.49200000E-02     1.02190255E-24
  -1.49100004E-02     1.02697748E-24
  -1.48999998E-02     1.03202669E-24
  -1.48900002E-02     1.03702885E-24
  -1.48799997E-02     1.04196318E-24
  -1.48700001E-02     1.04680945E-24
  -1.48600005E-02     1.05154794E-24
  -1.48499999E-02     1.05615922E-24
  -1.48400003E-02     1.06062467E-24
  -1.48299998E-02     1.06492633E-24
  -1.48200002E-02     1.06904694E-24
  -1.48099996E-02     1.07296995E-24
  -1.48000000E-02     1.07667957E-24
  -1.47900004E-02     1.08016091E-24
  -1.47799999E-02     1.08339968E-24
  -1.47700002E-02     1.08638266E-24
  -1.47599997E-02     1.08909742E-24
  -1.47500001E-02     1.09153264E-24
  -1.47399995E-02     1.09367765E-24
  -1.47299999E-02     1.09552309E-24
  -1.47200003E-02     1.09706018E-24
  -1.47099998E-02     1.09828154E-24
  -1.47000002E-02     1.09918044E-24
  -1.46899996E-02     1.09975138E-24
  -1.46800000E-02     1.09999031E-24
  -1.46700004E-02     1.09989367E-24
  -1.46599999E-02     1.09945950E-24
  -1.46500003E-02     1.09868672E-24
  -1.46399997E-02     1.09757570E-24
  -1.46300001E-02     1.09612805E-24
  -1.46199996E-02     1.09434640E-24
  -1.46100000E-02     1.09223482E-24
  -1.46000003E-02     1.08979872E-24
  -1.45899998E-02     1.08704481E-24
  -1.45800002E-02     1.08398097E-24
  -1.45699997E-02     1.08061677E-24
  -1.45600000E-02     1.07696287E-24
  -1.45500004E-02     1.07303118E-24
  -1.45399999E-02     1.06883513E-24
  -1.45300003E-02     1.06438961E-24
  -1.45199997E-02     1.05971038E-24
  -1.45100001E-02     1.05481491E-24
  -1.44999996E-02     1.04972143E-24
  -1.44900000E-02     1.04444977E-24
  -1.44800004E-02     1.03902063E-24
  -1.44699998E-02     1.03345581E-24
  -1.44600002E-02     1.02777808E-24
  -1.44499997E-02     1.02201131E-24
  -1.44400001E-02     1.01617975E-24
  -1.44300004E-02     1.01030876E-24
  -1.44199999E-02     1.00442395E-24
  -1.44100003E-02     9.98551572E-25
  -1.43999998E-02     9.92718242E-25
  -1.43900001E-02     9.86950485E-25
  -1.43799996E-02     9.81275025E-25
  -1.43700000E-02     9.75718388E-25
  -1.43600004E-02     9.70306703E-25
  -1.43499998E-02     9.65065807E-25
  -1.43400002E-02     9.60020845E-25
  -1.43299997E-02     9.55195876E-25
  -1.43200001E-02     9.50614073E-25
  -1.43100005E-02     9.46297623E-25
  -1.42999999E-02     9.42267037E-25
  -1.42900003E-02     9.38541839E-25
  -1.42799998E-02     9.35139186E-25
  -1.42700002E-02     9.32075053E-25
  -1.42599996E-02     9.29363146E-25
  -1.42500000E-02     9.27015299E-25
  -1.42400004E-02     9.25041076E-25
  -1.42299999E-02     9.23447675E-25
  -1.42200002E-02     9.22240521E-25
  -1.42099997E-02     9.21422078E-25
  -1.42000001E-02     9.20992543E-25
  -1.41899996E-02     9.20949747E-25
  -1.41799999E-02     9.21289155E-25
  -1.41700003E-02     9.22003468E-25
  -1.41599998E-02     9.23083222E-25
  -1.41500002E-02     9.24516582E-25
  -1.41399996E-02     9.26289251E-25
  -1.41300000E-02     9.28384959E-25
  -1.41200004E-02     9.30784969E-25
  -1.41099999E-02     9.33468871E-25
  -1.41000003E-02     9.36414182E-25
  -1.40899997E-02     9.39596841E-25
  -1.40800001E-02     9.42991211E-25
  -1.40699996E-02     9.46570372E-25
  -1.40600000E-02     9.50305924E-25
  -1.40500003E-02     9.54168877E-25
  -1.40399998E-02     9.58129649E-25
  -1.40300002E-02     9.62157672E-25
  -1.40199997E-02     9.66222475E-25
  -1.40100000E-02     9.70293293E-25
  -1.40000004E-02     9.74339558E-25
  -1.39899999E-02     9.78331095E-25
  -1.39800003E-02     9.82238225E-25
  -1.39699997E-02     9.86032251E-25
  -1.39600001E-02     9.89685072E-25
  -1.39499996E-02     9.93170160E-25
  -1.39400000E-02     9.96461978E-25
  -1.39300004E-02     9.99536564E-25
  -1.39199998E-02     1.00237163E-24
  -1.39100002E-02     1.00494647E-24