  -2.19999999E-02     1.00000002E-24
  -2.19899993E-02     1.00000002E-24
  -2.19800007E-02     1.00000002E-24
  -2.19700001E-02     1.00000012E-24
  -2.19599996E-02     1.00000022E-24
  -2.19500009E-02     1.00000022E-24
  -2.19400004E-02     1.00000022E-24
  -2.19299998E-02     1.00000022E-24
  -2.19199993E-02     1.00000022E-24
  -2.19100006E-02     1.00000032E-24
  -2.19000001E-02     1.00000041E-24
  -2.18899995E-02     1.00000051E-24
  -2.18800008E-02     1.00000041E-24
  -2.18700003E-02     1.00000012E-24
  -2.18599997E-02     9.99999822E-25
  -2.18499992E-02     9.99999724E-25
  -2.18400005E-02     9.99999822E-25
  -2.18300000E-02     1.00000012E-24
  -2.18199994E-02     1.00000032E-24
  -2.18100008E-02     1.00000032E-24
  -2.18000002E-02     1.00000012E-24
  -2.17899997E-02     1.00000012E-24
  -2.17799991E-02     1.00000041E-24
  -2.17700005E-02     1.00000110E-24
  -2.17599999E-02     1.00000179E-24
  -2.17499994E-02     1.00000209E-24
  -2.17400007E-02     1.00000189E-24
  -2.17300002E-02     1.00000110E-24
  -2.17199996E-02     1.00000022E-24
  -2.17099991E-02     9.99999625E-25
  -2.17000004E-02     9.99999428E-25
  -2.16899998E-02     9.99999625E-25
  -2.16799993E-02     9.99999822E-25
  -2.16700006E-02     9.99999822E-25
  -2.16600001E-02     9.99999329E-25
  -2.16499995E-02     9.99998442E-25
  -2.16400009E-02     9.99997554E-25
  -2.16300003E-02     9.99997061E-25
  -2.16199998E-02     9.99997160E-25
  -2.16099992E-02     9.99997850E-25
  -2.16000006E-02     9.99998935E-25
  -2.15900000E-02     1.00000022E-24
  -2.15799995E-02     1.00000130E-24
  -2.15700008E-02     1.00000229E-24
  -2.15600003E-02     1.00000308E-24
  -2.15499997E-02     1.00000377E-24
  -2.15399992E-02     1.00000426E-24
  -2.15300005E-02     1.00000416E-24
  -2.15200000E-02     1.00000308E-24
  -2.15099994E-02     1.00000081E-24
  -2.15000007E-02     9.99997259E-25
  -2.14900002E-02     9.99993117E-25
  -2.14799996E-02     9.99988975E-25
  -2.14699991E-02     9.99986017E-25
  -2.14600004E-02     9.99985228E-25
  -2.14499999E-02     9.99987003E-25
  -2.14399993E-02     9.99991539E-25
  -2.14300007E-02     9.99998245E-25
  -2.14200001E-02     1.00000653E-24
  -2.14099996E-02     1.00001550E-24
  -2.14000009E-02     1.00002388E-24
  -2.13900004E-02     1.00002990E-24
  -2.13799998E-02     1.00003157E-24
  -2.13699993E-02     1.00002664E-24
  -2.13600006E-02     1.00001363E-24
  -2.13500001E-02     9.99991737E-25
  -2.13399995E-02     9.99961858E-25
  -2.13300008E-02     9.99926064E-25
  -2.13200003E-02     9.99887508E-25
  -2.13099997E-02     9.99850629E-25
  -2.12999992E-02     9.99820258E-25
  -2.12900005E-02     9.99801325E-25
  -2.12800000E-02     9.99798564E-25
  -2.12699994E-02     9.99815722E-25
  -2.12600008E-02     9.99854771E-25
  -2.12500002E-02     9.99915414E-25
  -2.12399997E-02     9.99994596E-25
  -2.12299991E-02     1.00008689E-24
  -2.12200005E-02     1.00018432E-24
  -2.12099999E-02     1.00027760E-24
  -2.11999994E-02     1.00035668E-24
  -2.11900007E-02     1.00041210E-24
  -2.11800002E-02     1.00043596E-24
  -2.11699996E-02     1.00042314E-24
  -2.11599991E-02     1.00037197E-24
  -2.11500004E-02     1.00028490E-24
  -2.11399999E-02     1.00016824E-24
  -2.11299993E-02     1.00003177E-24
  -2.11200006E-02     9.99887212E-25
  -2.11100001E-02     9.99747387E-25
  -2.10999995E-02     9.99624522E-25
  -2.10900009E-02     9.99528675E-25
  -2.10800003E-02     9.99466750E-25
  -2.10699998E-02     9.99441605E-25
  -2.10599992E-02     9.99451761E-25
  -2.10500006E-02     9.99491796E-25
  -2.10400000E-02     9.99552538E-25
  -2.10299995E-02     9.99622254E-25
  -2.10200008E-02     9.99688814E-25
  -2.10100003E-02     9.99741175E-25
  -2.09999997E-02     9.99771644E-25
  -2.09899992E-02     9.99776673E-25
  -2.09800005E-02     9.99757346E-25
  -2.09700000E-02     9.99719974E-25
  -2.09599994E-02     9.99674417E-25
  -2.09500007E-02     9.99632706E-25
  -2.09400002E-02     9.99607561E-25
  -2.09299996E-02     9.99610618E-25
  -2.09199991E-02     9.99650850E-25
  -2.09100004E-02     9.99732694E-25
  -2.08999999E-02     9.99854968E-25
  -2.08899993E-02     1.00001008E-24
  -2.08800007E-02     1.00018471E-24
  -2.08700001E-02     1.00036102E-24
  -2.08599996E-02     1.00051929E-24
  -2.08500009E-02     1.00063998E-24
  -2.08400004E-02     1.00070625E-24
  -2.08299998E-02     1.00070536E-24
  -2.08199993E-02     1.00063071E-24
  -2.08100006E-02     1.00048231E-24
  -2.08000001E-02     1.00026695E-24
  -2.07899995E-02     9.99998738E-25
  -2.07800008E-02     9.99696900E-25
  -2.07700003E-02     9.99384215E-25
  -2.07599998E-02     9.99084152E-25
  -2.07499992E-02     9.98818405E-25
  -2.07400005E-02     9.98603933E-25
  -2.07300000E-02     9.98451979E-25
  -2.07199994E-02     9.98367275E-25
  -2.07100008E-02     9.98347849E-25
  -2.07000002E-02     9.98385813E-25
  -2.06899997E-02     9.98468545E-25
  -2.06799991E-02     9.98580563E-25
  -2.06700005E-02     9.98705992E-25
  -2.06599999E-02     9.98830040E-25
  -2.06499994E-02     9.98941368E-25
  -2.06400007E-02     9.99032975E-25
  -2.06300002E-02     9.99103183E-25
  -2.06199996E-02     9.99155150E-25
  -2.06099991E-02     9.99196269E-25
  -2.06000004E-02     9.99236304E-25
  -2.05899999E-02     9.99286002E-25
  -2.05799993E-02     9.99355520E-25
  -2.05700006E-02     9.99451860E-25
  -2.05600001E-02     9.99578571E-25
  -2.05499995E-02     9.99734864E-25
  -2.05400009E-02     9.99915414E-25
  -2.05300003E-02     1.00011125E-24
  -2.05199998E-02     1.00031083E-24
  -2.05099992E-02     1.00050124E-24
  -2.05000006E-02     1.00067055E-24
  -2.04900000E-02     1.00080900E-24
  -2.04799995E-02     1.00091037E-24
  -2.04700008E-02     1.00097288E-24
  -2.04600003E-02     1.00099970E-24
  -2.04499997E-02     1.00099813E-24
  -2.04399992E-02     1.00097919E-24
  -2.04300005E-02     1.00095563E-24
  -2.04200000E-02     1.00094083E-24
  -2.04099994E-02     1.00094646E-24
  -2.04000007E-02     1.00098156E-24
  -2.03900002E-02     1.00105137E-24
  -2.03799997E-02     1.00115679E-24
  -2.03699991E-02     1.00129493E-24
  -2.03600004E-02     1.00145941E-24
  -2.03499999E-02     1.00164164E-24
  -2.03399993E-02     1.00183175E-24
  -2.03300007E-02     1.00201980E-24
  -2.03200001E-02     1.00219749E-24
  -2.03099996E-02     1.00235901E-24
  -2.03000009E-02     1.00250169E-24
  -2.02900004E-02     1.00262574E-24
  -2.02799998E-02     1.00273362E-24
  -2.02699993E-02     1.00282927E-24
  -2.02600006E-02     1.00291664E-24
  -2.02500001E-02     1.00299878E-24
  -2.02399995E-02     1.00307717E-24
  -2.02300008E-02     1.00315152E-24
  -2.02200003E-02     1.00321837E-24
  -2.02099998E-02     1.00327202E-24
  -2.01999992E-02     1.00330525E-24
  -2.01900005E-02     1.00331047E-24
  -2.01800000E-02     1.00328129E-24
  -2.01699995E-02     1.00321423E-24
  -2.01600008E-02     1.00310971E-24
  -2.01500002E-02     1.00297205E-24
  -2.01399997E-02     1.00280935E-24
  -2.01299991E-02     1.00263225E-24
  -2.01200005E-02     1.00245269E-24
  -2.01099999E-02     1.00228210E-24
  -2.00999994E-02     1.00213004E-24
  -2.00900007E-02     1.00200274E-24
  -2.00800002E-02     1.00190206E-24
  -2.00699996E-02     1.00182505E-24
  -2.00599991E-02     1.00176431E-24
  -2.00500004E-02     1.00170948E-24
  -2.00399999E-02     1.00164884E-24
  -2.00299993E-02     1.00157044E-24
  -2.00200006E-02     1.00146503E-24
  -2.00100001E-02     1.00132708E-24
  -1.99999996E-02     1.00115698E-24
  -1.99900009E-02     1.00096115E-24
  -1.99800003E-02     1.00075230E-24
  -1.99699998E-02     1.00054848E-24
  -1.99599992E-02     1.00037049E-24
  -1.99500006E-02     1.00023964E-24
  -1.99400000E-02     1.00017446E-24
  -1.99299995E-02     1.00018806E-24
  -1.99200008E-02     1.00028667E-24
  -1.99100003E-02     1.00046831E-24
  -1.98999997E-02     1.00072262E-24
  -1.98899992E-02     1.00103185E-24
  -1.98800005E-02     1.00137264E-24
  -1.98700000E-02     1.00171845E-24
  -1.98599994E-02     1.00204317E-24
  -1.98500007E-02     1.00232351E-24
  -1.98400002E-02     1.00254163E-24
  -1.98299997E-02     1.00268747E-24
  -1.98199991E-02     1.00275936E-24
  -1.98100004E-02     1.00276429E-24
  -1.97999999E-02     1.00271626E-24
  -1.97899994E-02     1.00263462E-24
  -1.97800007E-02     1.00254094E-24
  -1.97700001E-02     1.00245594E-24
  -1.97599996E-02     1.00239609E-24
  -1.97500009E-02     1.00237232E-24
  -1.97400004E-02     1.00238879E-24
  -1.97299998E-02     1.00244283E-24
  -1.97199993E-02     1.00252664E-24
  -1.97100006E-02     1.00262821E-24
  -1.97000001E-02     1.00273352E-24
  -1.96899995E-02     1.00282907E-24
  -1.96800008E-02     1.00290352E-24
  -1.96700003E-02     1.00294957E-24
  -1.96599998E-02     1.00296594E-24
  -1.96499992E-02     1.00295726E-24
  -1.96400005E-02     1.00293379E-24
  -1.96300000E-02     1.00290954E-24
  -1.96199995E-02     1.00290007E-24
  -1.96100008E-02     1.00292019E-24
  -1.96000002E-02     1.00298152E-24
  -1.95899997E-02     1.00309107E-24
  -1.95799991E-02     1.00324924E-24
  -1.95700005E-02     1.00345089E-24
  -1.95599999E-02     1.00368568E-24
  -1.95499994E-02     1.00393979E-24
  -1.95400007E-02     1.00419706E-24
  -1.95300002E-02     1.00444071E-24
  -1.95199996E-02     1.00465479E-24
  -1.95099991E-02     1.00482568E-24
  -1.95000004E-02     1.00494312E-24
  -1.94899999E-02     1.00500159E-24
  -1.94799993E-02     1.00500090E-24
  -1.94700006E-02     1.00494539E-24
  -1.94600001E-02     1.00484294E-24
  -1.94499996E-02     1.00470242E-24
  -1.94400009E-02     1.00453173E-24
  -1.94300003E-02     1.00433659E-24
  -1.94199998E-02     1.00412044E-24
  -1.94099993E-02     1.00388516E-24
  -1.94000006E-02     1.00363194E-24
  -1.93900000E-02     1.00336145E-24
  -1.93799995E-02     1.00307470E-24
  -1.93700008E-02     1.00277356E-24
  -1.93600003E-02     1.00246136E-24
  -1.93499997E-02     1.00214404E-24
  -1.93399992E-02     1.00183077E-24
  -1.93300005E-02     1.00153386E-24
  -1.93200000E-02     1.00126772E-24
  -1.93099994E-02     1.00104654E-24
  -1.93000007E-02     1.00088275E-24
  -1.92900002E-02     1.00078474E-24
  -1.92799997E-02     1.00075614E-24
  -1.92699991E-02     1.00079568E-24
  -1.92600004E-02     1.00089626E-24
  -1.92499999E-02     1.00104585E-24
  -1.92399994E-02     1.00122818E-24
  -1.92300007E-02     1.00142362E-24
  -1.92200001E-02     1.00161166E-24
  -1.92099996E-02     1.00177289E-24
  -1.92000009E-02     1.00189171E-24
  -1.91900004E-02     1.00195847E-24
  -1.91799998E-02     1.00197119E-24
  -1.91699993E-02     1.00193529E-24
  -1.91600006E-02     1.00186351E-24
  -1.91500001E-02     1.00177338E-24
  -1.91399995E-02     1.00168522E-24
  -1.91300008E-02     1.00161935E-24
  -1.91200003E-02     1.00159312E-24
  -1.91099998E-02     1.00161837E-24
  -1.90999992E-02     1.00170011E-24
  -1.90900005E-02     1.00183570E-24
  -1.90800000E-02     1.00201477E-24
  -1.90699995E-02     1.00222116E-24
  -1.90600008E-02     1.00243425E-24
  -1.90500002E-02     1.00263176E-24
  -1.90399997E-02     1.00279318E-24
  -1.90299992E-02     1.00290253E-24
  -1.90200005E-02     1.00295154E-24
  -1.90099999E-02     1.00294099E-24
  -1.89999994E-02     1.00288064E-24
  -1.89900007E-02     1.00278854E-24
  -1.89800002E-02     1.00268856E-24
  -1.89699996E-02     1.00260691E-24
  -1.89599991E-02     1.00256914E-24
  -1.89500004E-02     1.00259665E-24
  -1.89399999E-02     1.00270394E-24
  -1.89299993E-02     1.00289662E-24
  -1.89200006E-02     1.00317016E-24
  -1.89100001E-02     1.00350986E-24
  -1.88999996E-02     1.00389236E-24
  -1.88900009E-02     1.00428797E-24
  -1.88800003E-02     1.00466327E-24
  -1.88699998E-02     1.00498493E-24
  -1.88599993E-02     1.00522336E-24
  -1.88500006E-02     1.00535629E-24
  -1.88400000E-02     1.00537187E-24
  -1.88299995E-02     1.00526971E-24
  -1.88200008E-02     1.00506155E-24
  -1.88100003E-02     1.00476888E-24
  -1.87999997E-02     1.00442020E-24
  -1.87899992E-02     1.00404697E-24
  -1.87800005E-02     1.00368025E-24
  -1.87700000E-02     1.00334785E-24
  -1.87599994E-02     1.00307165E-24
  -1.87500007E-02     1.00286566E-24
  -1.87400002E-02     1.00273510E-24
  -1.87299997E-02     1.00267544E-24
  -1.87199991E-02     1.00267347E-24
  -1.87100004E-02     1.00270897E-24
  -1.86999999E-02     1.00275827E-24
  -1.86899994E-02     1.00279791E-24
  -1.86800007E-02     1.00280758E-24
  -1.86700001E-02     1.00277267E-24
  -1.86599996E-02     1.00268530E-24
  -1.86500009E-02     1.00254449E-24
  -1.86400004E-02     1.00235556E-24
  -1.86299998E-02     1.00212955E-24
  -1.86199993E-02     1.00188155E-24
  -1.86100006E-02     1.00162921E-24
  -1.86000001E-02     1.00139049E-24
  -1.85899995E-02     1.00118134E-24
  -1.85800008E-02     1.00101351E-24
  -1.85700003E-02     1.00089400E-24
  -1.85599998E-02     1.00082398E-24
  -1.85499992E-02     1.00080002E-24
  -1.85400005E-02     1.00081472E-24
  -1.85300000E-02     1.00085800E-24
  -1.85199995E-02     1.00091865E-24
  -1.85100008E-02     1.00098501E-24
  -1.85000002E-02     1.00104634E-24
  -1.84899997E-02     1.00109338E-24
  -1.84799992E-02     1.00111951E-24
  -1.84700005E-02     1.00112188E-24
  -1.84599999E-02     1.00110097E-24
  -1.84499994E-02     1.00106114E-24
  -1.84400007E-02     1.00100976E-24
  -1.84300002E-02     1.00095622E-24
  -1.84199996E-02     1.00091037E-24
  -1.84099991E-02     1.00088197E-24
  -1.84000004E-02     1.00087980E-24
  -1.83899999E-02     1.00091165E-24
  -1.83799993E-02     1.00098363E-24
  -1.83700006E-02     1.00109999E-24
  -1.83600001E-02     1.00126259E-24
  -1.83499996E-02     1.00146996E-24
  -1.83400009E-02     1.00171698E-24
  -1.83300003E-02     1.00199465E-24
  -1.83199998E-02     1.00229087E-24
  -1.83099993E-02     1.00259084E-24
  -1.83000006E-02     1.00287877E-24
  -1.82900000E-02     1.00313890E-24
  -1.82799995E-02     1.00335712E-24
  -1.82700008E-02     1.00352238E-24
  -1.82600003E-02     1.00362799E-24
  -1.82499997E-02     1.00367227E-24
  -1.82399992E-02     1.00365876E-24
  -1.82300005E-02     1.00359634E-24
  -1.82200000E-02     1.00349832E-24
  -1.82099994E-02     1.00338167E-24
  -1.82000007E-02     1.00326571E-24
  -1.81900002E-02     1.00317025E-24
  -1.81799997E-02     1.00311385E-24
  -1.81699991E-02     1.00311109E-24
  -1.81600004E-02     1.00317094E-24
  -1.81499999E-02     1.00329489E-24
  -1.81399994E-02     1.00347554E-24
  -1.81300007E-02     1.00369741E-24
  -1.81200001E-02     1.00393801E-24
  -1.81099996E-02     1.00417073E-24
  -1.81000009E-02     1.00436775E-24
  -1.80900004E-02     1.00450343E-24
  -1.80799998E-02     1.00455687E-24
  -1.80699993E-02     1.00451487E-24
  -1.80600006E-02     1.00437317E-24
  -1.80500001E-02     1.00413799E-24
  -1.80399995E-02     1.00382580E-24
  -1.80300009E-02     1.00346154E-24
  -1.80200003E-02     1.00307697E-24
  -1.80099998E-02     1.00270650E-24
  -1.79999992E-02     1.00238376E-24
  -1.79900005E-02     1.00213793E-24
  -1.79800000E-02     1.00199051E-24
  -1.79699995E-02     1.00195294E-24
  -1.79600008E-02     1.00202503E-24
  -1.79500002E-02     1.00219463E-24
  -1.79399997E-02     1.00243829E-24
  -1.79299992E-02     1.00272376E-24
  -1.79200005E-02     1.00301396E-24
  -1.79099999E-02     1.00327133E-24
  -1.78999994E-02     1.00346282E-24
  -1.78900007E-02     1.00356409E-24
  -1.78800002E-02     1.00356202E-24
  -1.78699996E-02     1.00345622E-24
  -1.78599991E-02     1.00325890E-24
  -1.78500004E-02     1.00299375E-24
  -1.78399999E-02     1.00269319E-24
  -1.78299993E-02     1.00239530E-24
  -1.78200006E-02     1.00213902E-24
  -1.78100001E-02     1.00195975E-24
  -1.77999996E-02     1.00188372E-24
  -1.77900009E-02     1.00192504E-24
  -1.77800003E-02     1.00208370E-24
  -1.77699998E-02     1.00234540E-24
  -1.77599993E-02     1.00268343E-24
  -1.77500006E-02     1.00306238E-24
  -1.77400000E-02     1.00344172E-24
  -1.77299995E-02     1.00378044E-24
  -1.77200008E-02     1.00404135E-24
  -1.77100003E-02     1.00419508E-24
  -1.76999997E-02     1.00422378E-24
  -1.76899992E-02     1.00412300E-24
  -1.76800005E-02     1.00390350E-24
  -1.76700000E-02     1.00358963E-24
  -1.76599994E-02     1.00321739E-24
  -1.76500008E-02     1.00282937E-24
  -1.76400002E-02     1.00246994E-24
  -1.76299997E-02     1.00217935E-24
  -1.76199991E-02     1.00198903E-24
  -1.76100004E-02     1.00191774E-24
  -1.75999999E-02     1.00196971E-24
  -1.75899994E-02     1.00213448E-24
  -1.75800007E-02     1.00238889E-24
  -1.75700001E-02     1.00269891E-24
  -1.75599996E-02     1.00302333E-24
  -1.75500009E-02     1.00331787E-24
  -1.75400004E-02     1.00353993E-24
  -1.75299998E-02     1.00365353E-24
  -1.75199993E-02     1.00363341E-24
  -1.75100006E-02     1.00346894E-24
  -1.75000001E-02     1.00316513E-24
  -1.74899995E-02     1.00274259E-24
  -1.74800009E-02     1.00223486E-24
  -1.74700003E-02     1.00168473E-24
  -1.74599998E-02     1.00113894E-24
  -1.74499992E-02     1.00064343E-24
  -1.74400005E-02     1.00023885E-24
  -1.74300000E-02     9.99956534E-25
  -1.74199995E-02     9.99816215E-25
  -1.74100008E-02     9.99824597E-25
  -1.74000002E-02     9.99974677E-25
  -1.73899997E-02     1.00024664E-24
  -1.73799992E-02     1.00060941E-24
  -1.73700005E-02     1.00102426E-24
  -1.73599999E-02     1.00144876E-24
  -1.73499994E-02     1.00184211E-24
  -1.73400007E-02     1.00216919E-24
  -1.73300002E-02     1.00240476E-24
  -1.73199996E-02     1.00253571E-24
  -1.73099991E-02     1.00256244E-24
  -1.73000004E-02     1.00249844E-24
  -1.72899999E-02     1.00236838E-24
  -1.72799993E-02     1.00220518E-24
  -1.72700007E-02     1.00204672E-24
  -1.72600001E-02     1.00193086E-24
  -1.72499996E-02     1.00189171E-24
  -1.72400009E-02     1.00195511E-24
  -1.72300003E-02     1.00213616E-24
  -1.72199998E-02     1.00243681E-24
  -1.72099993E-02     1.00284653E-24
  -1.72000006E-02     1.00334262E-24
  -1.71900000E-02     1.00389305E-24
  -1.71799995E-02     1.00445935E-24
  -1.71700008E-02     1.00500031E-24
  -1.71600003E-02     1.00547698E-24
  -1.71499997E-02     1.00585721E-24
  -1.71399992E-02     1.00611990E-24
  -1.71300005E-02     1.00625756E-24
  -1.71200000E-02     1.00627649E-24
  -1.71099994E-02     1.00619603E-24
  -1.71000008E-02     1.00604496E-24
  -1.70900002E-02     1.00585889E-24
  -1.70799997E-02     1.00567578E-24
  -1.70699991E-02     1.00553270E-24
  -1.70600004E-02     1.00546190E-24
  -1.70499999E-02     1.00548734E-24
  -1.70399994E-02     1.00562115E-24
  -1.70300007E-02     1.00586185E-24
  -1.70200001E-02     1.00619485E-24
  -1.70099996E-02     1.00659411E-24
  -1.70000009E-02     1.00702631E-24
  -1.69900004E-02     1.00745446E-24
  -1.69799998E-02     1.00784258E-24
  -1.69699993E-02     1.00815871E-24
  -1.69600006E-02     1.00837762E-24
  -1.69500001E-02     1.00848333E-24
  -1.69399995E-02     1.00847041E-24
  -1.69300009E-02     1.00834489E-24
  -1.69200003E-02     1.00812331E-24
  -1.69099998E-02     1.00783075E-24
  -1.68999992E-02     1.00749706E-24
  -1.68900006E-02     1.00715311E-24
  -1.68800000E-02     1.00682781E-24
  -1.68699995E-02     1.00654471E-24
  -1.68600008E-02     1.00632106E-24
  -1.68500002E-02     1.00616615E-24
  -1.68399997E-02     1.00608145E-24
  -1.68299992E-02     1.00606113E-24
  -1.68200005E-02     1.00609308E-24
  -1.68099999E-02     1.00616083E-24
  -1.67999994E-02     1.00624573E-24
  -1.67900007E-02     1.00632866E-24
  -1.67800002E-02     1.00639157E-24
  -1.67699996E-02     1.00641977E-24
  -1.67599991E-02     1.00640281E-24
  -1.67500004E-02     1.00633595E-24
  -1.67399999E-02     1.00622058E-24
  -1.67299993E-02     1.00606439E-24
  -1.67200007E-02     1.00587960E-24
  -1.67100001E-02     1.00568218E-24
  -1.66999996E-02     1.00548980E-24
  -1.66900009E-02     1.00532108E-24
  -1.66800003E-02     1.00519408E-24
  -1.66699998E-02     1.00512594E-24
  -1.66599993E-02     1.00513117E-24
  -1.66500006E-02     1.00522090E-24
  -1.66400000E-02     1.00540105E-24
  -1.66299995E-02     1.00567213E-24
  -1.66200008E-02     1.00602849E-24
  -1.66100003E-02     1.00645941E-24
  -1.65999997E-02     1.00694949E-24
  -1.65899992E-02     1.00747960E-24
  -1.65800005E-02     1.00802826E-24
  -1.65700000E-02     1.00857316E-24
  -1.65599994E-02     1.00909381E-24
  -1.65500008E-02     1.00957285E-24
  -1.65400002E-02     1.00999824E-24
  -1.65299997E-02     1.01036378E-24
  -1.65199991E-02     1.01066976E-24
  -1.65100005E-02     1.01092318E-24
  -1.64999999E-02     1.01113686E-24
  -1.64899994E-02     1.01132865E-24
  -1.64800007E-02     1.01151907E-24
  -1.64700001E-02     1.01172920E-24
  -1.64599996E-02     1.01197680E-24
  -1.64500009E-02     1.01227410E-24
  -1.64400004E-02     1.01262564E-24
  -1.64299998E-02     1.01302845E-24
  -1.64199993E-02     1.01347228E-24
  -1.64100006E-02     1.01394057E-24
  -1.64000001E-02     1.01441192E-24
  -1.63899995E-02     1.01486147E-24
  -1.63800009E-02     1.01526359E-24
  -1.63700003E-02     1.01559491E-24
  -1.63599998E-02     1.01583768E-24
  -1.63499992E-02     1.01598343E-24
  -1.63400006E-02     1.01603421E-24
  -1.63300000E-02     1.01600354E-24
  -1.63199995E-02     1.01591430E-24
  -1.63100008E-02     1.01579587E-24
  -1.63000003E-02     1.01568060E-24
  -1.62899997E-02     1.01560053E-24
  -1.62799992E-02     1.01558397E-24
  -1.62700005E-02     1.01565240E-24
  -1.62599999E-02     1.01581826E-24
  -1.62499994E-02     1.01608361E-24
  -1.62400007E-02     1.01643929E-24
  -1.62300002E-02     1.01686527E-24
  -1.62199996E-02     1.01733267E-24
  -1.62099991E-02     1.01780658E-24
  -1.62000004E-02     1.01824982E-24
  -1.61899999E-02     1.01862700E-24
  -1.61799993E-02     1.01890931E-24
  -1.61700007E-02     1.01907763E-24
  -1.61600001E-02     1.01912556E-24
  -1.61499996E-02     1.01905949E-24
  -1.61400009E-02     1.01889768E-24
  -1.61300004E-02     1.01866822E-24
  -1.61199998E-02     1.01840543E-24
  -1.61099993E-02     1.01814579E-24
  -1.61000006E-02     1.01792422E-24
  -1.60900000E-02     1.01777029E-24
  -1.60799995E-02     1.01770492E-24
  -1.60700008E-02     1.01773874E-24
  -1.60600003E-02     1.01787097E-24
  -1.60499997E-02     1.01809018E-24
  -1.60399992E-02     1.01837634E-24
  -1.60300005E-02     1.01870352E-24
  -1.60200000E-02     1.01904332E-24
  -1.60099994E-02     1.01936794E-24
  -1.60000008E-02     1.01965370E-24
  -1.59900002E-02     1.01988346E-24
  -1.59799997E-02     1.02004813E-24
  -1.59699991E-02     1.02014763E-24
  -1.59600005E-02     1.02019032E-24
  -1.59499999E-02     1.02019170E-24
  -1.59399994E-02     1.02017277E-24
  -1.59300007E-02     1.02015719E-24
  -1.59200002E-02     1.02016764E-24
  -1.59099996E-02     1.02022296E-24
  -1.59000009E-02     1.02033587E-24
  -1.58900004E-02     1.02051149E-24
  -1.58799998E-02     1.02074667E-24
  -1.58699993E-02     1.02103125E-24
  -1.58600006E-02     1.02134955E-24
  -1.58500001E-02     1.02168285E-24
  -1.58399995E-02     1.02201161E-24
  -1.58300009E-02     1.02231709E-24
  -1.58200003E-02     1.02258333E-24
  -1.58099998E-02     1.02279869E-24
  -1.57999992E-02     1.02295627E-24
  -1.57900006E-02     1.02305517E-24
  -1.57800000E-02     1.02310013E-24
  -1.57699995E-02     1.02310092E-24
  -1.57600008E-02     1.02307144E-24
  -1.57500003E-02     1.02302717E-24
  -1.57399997E-02     1.02298309E-24
  -1.57299992E-02     1.02295242E-24
  -1.57200005E-02     1.02294562E-24
  -1.57099999E-02     1.02297037E-24
  -1.56999994E-02     1.02303229E-24
  -1.56900007E-02     1.02313583E-24
  -1.56800002E-02     1.02328552E-24
  -1.56699996E-02     1.02348638E-24
  -1.56599991E-02     1.02374325E-24
  -1.56500004E-02     1.02405988E-24
  -1.56399999E-02     1.02443785E-24
  -1.56299993E-02     1.02487517E-24
  -1.56199997E-02     1.02536594E-24
  -1.56100001E-02     1.02590049E-24
  -1.55999996E-02     1.02646611E-24
  -1.55900000E-02     1.02704858E-24
  -1.55800004E-02     1.02763303E-24
  -1.55699998E-02     1.02820436E-24
  -1.55600002E-02     1.02874818E-24
  -1.55499997E-02     1.02925167E-24
  -1.55400001E-02     1.02970507E-24
  -1.55300004E-02     1.03010344E-24
  -1.55199999E-02     1.03044798E-24
  -1.55100003E-02     1.03074607E-24
  -1.54999997E-02     1.03101083E-24
  -1.54900001E-02     1.03125844E-24
  -1.54799996E-02     1.03150545E-24
  -1.54700000E-02     1.03176617E-24
  -1.54600004E-02     1.03204996E-24
  -1.54499998E-02     1.03236107E-24
  -1.54400002E-02     1.03269761E-24
  -1.54299997E-02     1.03305270E-24
  -1.54200001E-02     1.03341420E-24
  -1.54100005E-02     1.03376583E-24
  -1.53999999E-02     1.03408788E-24
  -1.53900003E-02     1.03435876E-24
  -1.53799998E-02     1.03455755E-24
  -1.53700002E-02     1.03466799E-24
  -1.53599996E-02     1.03468199E-24
  -1.53500000E-02     1.03460242E-24
  -1.53400004E-02     1.03444297E-24
  -1.53299998E-02     1.03422593E-24
  -1.53200002E-02     1.03397932E-24
  -1.53099997E-02     1.03373230E-24
  -1.53000001E-02     1.03351251E-24
  -1.52899995E-02     1.03334359E-24
  -1.52799999E-02     1.03324331E-24
  -1.52700003E-02     1.03322230E-24
  -1.52599998E-02     1.03328186E-24
  -1.52500002E-02     1.03341291E-24
  -1.52399996E-02     1.03359544E-24
  -1.52300000E-02     1.03380064E-24
  -1.52200004E-02     1.03399430E-24
  -1.52099999E-02     1.03414231E-24
  -1.52000003E-02     1.03421597E-24
  -1.51899997E-02     1.03419625E-24
  -1.51800001E-02     1.03407575E-24
  -1.51699996E-02     1.03385931E-24
  -1.51600000E-02     1.03356201E-24
  -1.51500003E-02     1.03320791E-24
  -1.51399998E-02     1.03282718E-24
  -1.51300002E-02     1.03245376E-24
  -1.51199996E-02     1.03212194E-24
  -1.51100000E-02     1.03186260E-24
  -1.51000004E-02     1.03169990E-24
  -1.50899999E-02     1.03164803E-24
  -1.50800003E-02     1.03170937E-24
  -1.50699997E-02     1.03187424E-24
  -1.50600001E-02     1.03212332E-24
  -1.50499996E-02     1.03243039E-24
  -1.50400000E-02     1.03276664E-24
  -1.50300004E-02     1.03310427E-24
  -1.50199998E-02     1.03342041E-24
  -1.50100002E-02     1.03369966E-24
  -1.49999997E-02     1.03393593E-24
  -1.49900001E-02     1.03413255E-24
  -1.49800004E-02     1.03430078E-24
  -1.49699999E-02     1.03445806E-24
  -1.49600003E-02     1.03462520E-24
  -1.49499997E-02     1.03482350E-24
  -1.49400001E-02     1.03507307E-24
  -1.49299996E-02     1.03539000E-24
  -1.49200000E-02     1.03578462E-24
  -1.49100004E-02     1.03625912E-24
  -1.48999998E-02     1.03680610E-24
  -1.48900002E-02     1.03740889E-24
  -1.48799997E-02     1.03804392E-24
  -1.48700001E-02     1.03868408E-24
  -1.48600005E-02     1.03930324E-24
  -1.48499999E-02     1.03987940E-24
  -1.48400003E-02     1.04039680E-24
  -1.48299998E-02     1.04084655E-24
  -1.48200002E-02     1.04122638E-24
  -1.48099996E-02     1.04153956E-24
  -1.48000000E-02     1.04179505E-24
  -1.47900004E-02     1.04200676E-24
  -1.47799999E-02     1.04219274E-24
  -1.47700002E-02     1.04237299E-24
  -1.47599997E-02     1.04256577E-24
  -1.47500001E-02     1.04278438E-24
  -1.47399995E-02     1.04303475E-24
  -1.47299999E-02     1.04331539E-24
  -1.47200003E-02     1.04361890E-24
  -1.47099998E-02     1.04393484E-24
  -1.47000002E-02     1.04425196E-24
  -1.46899996E-02     1.04455981E-24
  -1.46800000E-02     1.04484903E-24
  -1.46700004E-02     1.04511113E-24
  -1.46599999E-02     1.04533872E-24
  -1.46500003E-02     1.04552646E-24
  -1.46399997E-02     1.04567221E-24
  -1.46300001E-02     1.04577742E-24
  -1.46199996E-02     1.04584615E-24
  -1.46100000E-02     1.04588372E-24
  -1.46000003E-02     1.04589427E-24
  -1.45899998E-02     1.04587879E-24
  -1.45800002E-02     1.04583442E-24
  -1.45699997E-02     1.04575553E-24
  -1.45600000E-02     1.04563523E-24
  -1.45500004E-02     1.04546789E-24
  -1.45399999E-02     1.04525046E-24
  -1.45300003E-02     1.04498353E-24
  -1.45199997E-02     1.04467163E-24
  -1.45100001E-02     1.04432207E-24
  -1.44999996E-02     1.04394440E-24
  -1.44900000E-02     1.04354928E-24
  -1.44800004E-02     1.04314805E-24
  -1.44699998E-02     1.04275234E-24
  -1.44600002E-02     1.04237339E-24
  -1.44499997E-02     1.04202126E-24
  -1.44400001E-02     1.04170345E-24
  -1.44300004E-02     1.04142320E-24
  -1.44199999E-02     1.04117954E-24
  -1.44100003E-02     1.04096764E-24
  -1.43999998E-02     1.04078078E-24
  -1.43900001E-02     1.04061216E-24
  -1.43799996E-02     1.04045715E-24
  -1.43700000E-02     1.04031446E-24
  -1.43600004E-02     1.04018588E-24
  -1.43499998E-02     1.04007622E-24
  -1.43400002E-02     1.03999231E-24
  -1.43299997E-02     1.03994251E-24
  -1.43200001E-02     1.03993610E-24
  -1.43100005E-02     1.03998265E-24
  -1.42999999E-02     1.04009013E-24
  -1.42900003E-02     1.04026378E-24
  -1.42799998E-02     1.04050448E-24
  -1.42700002E-02     1.04080809E-24
  -1.42599996E-02     1.04116584E-24
  -1.42500000E-02     1.04156520E-24
  -1.42400004E-02     1.04199168E-24
  -1.42299999E-02     1.04243019E-24
  -1.42200002E-02     1.04286692E-24
  -1.42099997E-02     1.04329083E-24
  -1.42000001E-02     1.04369433E-24
  -1.41899996E-02     1.04407358E-24
  -1.41799999E-02     1.04442807E-24
  -1.41700003E-02     1.04476009E-24
  -1.41599998E-02     1.04507317E-24
  -1.41500002E-02     1.04537126E-24
  -1.41399996E-02     1.04565840E-24
  -1.41300000E-02     1.04593805E-24
  -1.41200004E-02     1.04621267E-24
  -1.41099999E-02     1.04648375E-24
  -1.41000003E-02     1.04675068E-24
  -1.40899997E-02     1.04701130E-24
  -1.40800001E-02     1.04726206E-24
  -1.40699996E-02     1.04749891E-24
  -1.40600000E-02     1.04771950E-24
  -1.40500003E-02     1.04792391E-24
  -1.40399998E-02     1.04811521E-24
  -1.40300002E-02     1.04829921E-24
  -1.40199997E-02     1.04848262E-24
  -1.40100000E-02     1.04867106E-24
  -1.40000004E-02     1.04886749E-24
  -1.39899999E-02     1.04907141E-24
  -1.39800003E-02     1.04927839E-24
  -1.39699997E-02     1.04948063E-24
  -1.39600001E-02     1.04966769E-24
  -1.39499996E-02     1.04982684E-24
  -1.39400000E-02     1.04994379E-24
  -1.39300004E-02     1.05000374E-24
  -1.39199998E-02     1.04999250E-24
  -1.39100002E-02     1.04989882E-24