  -2.19999999E-02     1.00000002E-24
  -2.19899993E-02     9.99999231E-25
  -2.19800007E-02     9.99997554E-25
  -2.19700001E-02     9.99995089E-25
  -2.19599996E-02     9.99992032E-25
  -2.19500009E-02     9.99988384E-25
  -2.19400004E-02     9.99984341E-25
  -2.19299998E-02     9.99980199E-25
  -2.19199993E-02     9.99976058E-25
  -2.19100006E-02     9.99972015E-25
  -2.19000001E-02     9.99968268E-25
  -2.18899995E-02     9.99964915E-25
  -2.18800008E-02     9.99962154E-25
  -2.18700003E-02     9.99959886E-25
  -2.18599997E-02     9.99958210E-25
  -2.18499992E-02     9.99957125E-25
  -2.18400005E-02     9.99956435E-25
  -2.18300000E-02     9.99956139E-25
  -2.18199994E-02     9.99956139E-25
  -2.18100008E-02     9.99956336E-25
  -2.18000002E-02     9.99956435E-25
  -2.17899997E-02     9.99956336E-25
  -2.17799991E-02     9.99955942E-25
  -2.17700005E-02     9.99955153E-25
  -2.17599999E-02     9.99953773E-25
  -2.17499994E-02     9.99951800E-25
  -2.17400007E-02     9.99949237E-25
  -2.17300002E-02     9.99946081E-25
  -2.17199996E-02     9.99942235E-25
  -2.17099991E-02     9.99937897E-25
  -2.17000004E-02     9.99933164E-25
  -2.16899998E-02     9.99928135E-25
  -2.16799993E-02     9.99922908E-25
  -2.16700006E-02     9.99917781E-25
  -2.16600001E-02     9.99912850E-25
  -2.16499995E-02     9.99908216E-25
  -2.16400009E-02     9.99904074E-25
  -2.16300003E-02     9.99900524E-25
  -2.16199998E-02     9.99897566E-25
  -2.16099992E-02     9.99895397E-25
  -2.16000006E-02     9.99894016E-25
  -2.15900000E-02     9.99893227E-25
  -2.15799995E-02     9.99893030E-25
  -2.15700008E-02     9.99893425E-25
  -2.15600003E-02     9.99894115E-25
  -2.15499997E-02     9.99895002E-25
  -2.15399992E-02     9.99895989E-25
  -2.15300005E-02     9.99896975E-25
  -2.15200000E-02     9.99897665E-25
  -2.15099994E-02     9.99897961E-25
  -2.15000007E-02     9.99897665E-25
  -2.14900002E-02     9.99896876E-25
  -2.14799996E-02     9.99895495E-25
  -2.14699991E-02     9.99893425E-25
  -2.14600004E-02     9.99890762E-25
  -2.14499999E-02     9.99887508E-25
  -2.14399993E-02     9.99883860E-25
  -2.14300007E-02     9.99879915E-25
  -2.14200001E-02     9.99875774E-25
  -2.14099996E-02     9.99871632E-25
  -2.14000009E-02     9.99867688E-25
  -2.13900004E-02     9.99863941E-25
  -2.13799998E-02     9.99860588E-25
  -2.13699993E-02     9.99857729E-25
  -2.13600006E-02     9.99855461E-25
  -2.13500001E-02     9.99853784E-25
  -2.13399995E-02     9.99852700E-25
  -2.13300008E-02     9.99852305E-25
  -2.13200003E-02     9.99852503E-25
  -2.13099997E-02     9.99853094E-25
  -2.12999992E-02     9.99854080E-25
  -2.12900005E-02     9.99855264E-25
  -2.12800000E-02     9.99856447E-25
  -2.12699994E-02     9.99857630E-25
  -2.12600008E-02     9.99858518E-25
  -2.12500002E-02     9.99859109E-25
  -2.12399997E-02     9.99859306E-25
  -2.12299991E-02     9.99858912E-25
  -2.12200005E-02     9.99857926E-25
  -2.12099999E-02     9.99856348E-25
  -2.11999994E-02     9.99854179E-25
  -2.11900007E-02     9.99851516E-25
  -2.11800002E-02     9.99848460E-25
  -2.11699996E-02     9.99845008E-25
  -2.11599991E-02     9.99841458E-25
  -2.11500004E-02     9.99837909E-25
  -2.11399999E-02     9.99834457E-25
  -2.11299993E-02     9.99831203E-25
  -2.11200006E-02     9.99828344E-25
  -2.11100001E-02     9.99826076E-25
  -2.10999995E-02     9.99824301E-25
  -2.10900009E-02     9.99823117E-25
  -2.10800003E-02     9.99822624E-25
  -2.10699998E-02     9.99822822E-25
  -2.10599992E-02     9.99823611E-25
  -2.10500006E-02     9.99824892E-25
  -2.10400000E-02     9.99826569E-25
  -2.10299995E-02     9.99828541E-25
  -2.10200008E-02     9.99830710E-25
  -2.10100003E-02     9.99832880E-25
  -2.09999997E-02     9.99834852E-25
  -2.09899992E-02     9.99836627E-25
  -2.09800005E-02     9.99838007E-25
  -2.09700000E-02     9.99838993E-25
  -2.09599994E-02     9.99839388E-25
  -2.09500007E-02     9.99839191E-25
  -2.09400002E-02     9.99838500E-25
  -2.09299996E-02     9.99837416E-25
  -2.09199991E-02     9.99835838E-25
  -2.09100004E-02     9.99833964E-25
  -2.08999999E-02     9.99831894E-25
  -2.08899993E-02     9.99829823E-25
  -2.08800007E-02     9.99827752E-25
  -2.08700001E-02     9.99825878E-25
  -2.08599996E-02     9.99824202E-25
  -2.08500009E-02     9.99823019E-25
  -2.08400004E-02     9.99822230E-25
  -2.08299998E-02     9.99821836E-25
  -2.08199993E-02     9.99821934E-25
  -2.08100006E-02     9.99822526E-25
  -2.08000001E-02     9.99823512E-25
  -2.07899995E-02     9.99824892E-25
  -2.07800008E-02     9.99826470E-25
  -2.07700003E-02     9.99828245E-25
  -2.07599998E-02     9.99829921E-25
  -2.07499992E-02     9.99831401E-25
  -2.07400005E-02     9.99832682E-25
  -2.07300000E-02     9.99833570E-25
  -2.07199994E-02     9.99834162E-25
  -2.07100008E-02     9.99834260E-25
  -2.07000002E-02     9.99833866E-25
  -2.06899997E-02     9.99833077E-25
  -2.06799991E-02     9.99831795E-25
  -2.06700005E-02     9.99830316E-25
  -2.06599999E-02     9.99828541E-25
  -2.06499994E-02     9.99826766E-25
  -2.06400007E-02     9.99824991E-25
  -2.06300002E-02     9.99823413E-25
  -2.06199996E-02     9.99822230E-25
  -2.06099991E-02     9.99821737E-25
  -2.06000004E-02     9.99821934E-25
  -2.05899999E-02     9.99822920E-25
  -2.05799993E-02     9.99824695E-25
  -2.05700006E-02     9.99827358E-25
  -2.05600001E-02     9.99830809E-25
  -2.05499995E-02     9.99835049E-25
  -2.05400009E-02     9.99839881E-25
  -2.05300003E-02     9.99845206E-25
  -2.05199998E-02     9.99850826E-25
  -2.05099992E-02     9.99856545E-25
  -2.05000006E-02     9.99862166E-25
  -2.04900000E-02     9.99867392E-25
  -2.04799995E-02     9.99872027E-25
  -2.04700008E-02     9.99875873E-25
  -2.04600003E-02     9.99878732E-25
  -2.04499997E-02     9.99880409E-25
  -2.04399992E-02     9.99880902E-25
  -2.04300005E-02     9.99880211E-25
  -2.04200000E-02     9.99878338E-25
  -2.04099994E-02     9.99875281E-25
  -2.04000007E-02     9.99871337E-25
  -2.03900002E-02     9.99866505E-25
  -2.03799997E-02     9.99861081E-25
  -2.03699991E-02     9.99855362E-25
  -2.03600004E-02     9.99849643E-25
  -2.03499999E-02     9.99844022E-25
  -2.03399993E-02     9.99839191E-25
  -2.03300007E-02     9.99834950E-25
  -2.03200001E-02     9.99831894E-25
  -2.03099996E-02     9.99830119E-25
  -2.03000009E-02     9.99829823E-25
  -2.02900004E-02     9.99831006E-25
  -2.02799998E-02     9.99833668E-25
  -2.02699993E-02     9.99837909E-25
  -2.02600006E-02     9.99843431E-25
  -2.02500001E-02     9.99850136E-25
  -2.02399995E-02     9.99857827E-25
  -2.02300008E-02     9.99866308E-25
  -2.02200003E-02     9.99875182E-25
  -2.02099998E-02     9.99884254E-25
  -2.01999992E-02     9.99893129E-25
  -2.01900005E-02     9.99901609E-25
  -2.01800000E-02     9.99909301E-25
  -2.01699995E-02     9.99916104E-25
  -2.01600008E-02     9.99921725E-25
  -2.01500002E-02     9.99926064E-25
  -2.01399997E-02     9.99929121E-25
  -2.01299991E-02     9.99930994E-25
  -2.01200005E-02     9.99931684E-25
  -2.01099999E-02     9.99931487E-25
  -2.00999994E-02     9.99930797E-25
  -2.00900007E-02     9.99929811E-25
  -2.00800002E-02     9.99929121E-25
  -2.00699996E-02     9.99929219E-25
  -2.00599991E-02     9.99930698E-25
  -2.00500004E-02     9.99934051E-25
  -2.00399999E-02     9.99939968E-25
  -2.00299993E-02     9.99948842E-25
  -2.00200006E-02     9.99961365E-25
  -2.00100001E-02     9.99978030E-25
  -1.99999996E-02     9.99999329E-25
  -1.99900009E-02     1.00002556E-24
  -1.99800003E-02     1.00005682E-24
  -1.99699998E-02     1.00009340E-24
  -1.99599992E-02     1.00013521E-24
  -1.99500006E-02     1.00018215E-24
  -1.99400000E-02     1.00023372E-24
  -1.99299995E-02     1.00028943E-24
  -1.99200008E-02     1.00034879E-24
  -1.99100003E-02     1.00041082E-24
  -1.98999997E-02     1.00047452E-24
  -1.98899992E-02     1.00053881E-24
  -1.98800005E-02     1.00060222E-24
  -1.98700000E-02     1.00066325E-24
  -1.98599994E-02     1.00072025E-24
  -1.98500007E-02     1.00077143E-24
  -1.98400002E-02     1.00081491E-24
  -1.98299997E-02     1.00084874E-24
  -1.98199991E-02     1.00087102E-24
  -1.98100004E-02     1.00087970E-24
  -1.97999999E-02     1.00087270E-24
  -1.97899994E-02     1.00084814E-24
  -1.97800007E-02     1.00080416E-24
  -1.97700001E-02     1.00073908E-24
  -1.97599996E-02     1.00065152E-24
  -1.97500009E-02     1.00054009E-24
  -1.97400004E-02     1.00040392E-24
  -1.97299998E-02     1.00024230E-24
  -1.97199993E-02     1.00005504E-24
  -1.97100006E-02     9.99842247E-25
  -1.97000001E-02     9.99604702E-25
  -1.96899995E-02     9.99343490E-25
  -1.96800008E-02     9.99060092E-25
  -1.96700003E-02     9.98756873E-25
  -1.96599998E-02     9.98436399E-25
  -1.96499992E-02     9.98101823E-25
  -1.96400005E-02     9.97757288E-25
  -1.96300000E-02     9.97406837E-25
  -1.96199995E-02     9.97055300E-25
  -1.96100008E-02     9.96707709E-25
  -1.96000002E-02     9.96369780E-25
  -1.95899997E-02     9.96047235E-25
  -1.95799991E-02     9.95746186E-25
  -1.95700005E-02     9.95472845E-25
  -1.95599999E-02     9.95233525E-25
  -1.95499994E-02     9.95034337E-25
  -1.95400007E-02     9.94881397E-25
  -1.95300002E-02     9.94780226E-25
  -1.95199996E-02     9.94736444E-25
  -1.95099991E-02     9.94754982E-25
  -1.95000004E-02     9.94840080E-25
  -1.94899999E-02     9.94995289E-25
  -1.94799993E-02     9.95223763E-25
  -1.94700006E-02     9.95527573E-25
  -1.94600001E-02     9.95907804E-25
  -1.94499996E-02     9.96364653E-25
  -1.94400009E-02     9.96897430E-25
  -1.94300003E-02     9.97504162E-25
  -1.94199998E-02     9.98182188E-25
  -1.94099993E-02     9.98927662E-25
  -1.94000006E-02     9.99735751E-25
  -1.93900000E-02     1.00060044E-24
  -1.93799995E-02     1.00151513E-24
  -1.93700008E-02     1.00247201E-24
  -1.93600003E-02     1.00346282E-24
  -1.93499997E-02     1.00447809E-24
  -1.93399992E-02     1.00550814E-24
  -1.93300005E-02     1.00654244E-24
  -1.93200000E-02     1.00757013E-24
  -1.93099994E-02     1.00857987E-24
  -1.93000007E-02     1.00956022E-24
  -1.92900002E-02     1.01049946E-24
  -1.92799997E-02     1.01138575E-24
  -1.92699991E-02     1.01220764E-24
  -1.92600004E-02     1.01295351E-24
  -1.92499999E-02     1.01361201E-24
  -1.92399994E-02     1.01417230E-24
  -1.92300007E-02     1.01462392E-24
  -1.92200001E-02     1.01495712E-24
  -1.92099996E-02     1.01516242E-24
  -1.92000009E-02     1.01523135E-24
  -1.91900004E-02     1.01515601E-24
  -1.91799998E-02     1.01492951E-24
  -1.91699993E-02     1.01454583E-24
  -1.91600006E-02     1.01399984E-24
  -1.91500001E-02     1.01328749E-24
  -1.91399995E-02     1.01240565E-24
  -1.91300008E-02     1.01135232E-24
  -1.91200003E-02     1.01012663E-24
  -1.91099998E-02     1.00872867E-24
  -1.90999992E-02     1.00715982E-24
  -1.90900005E-02     1.00542255E-24
  -1.90800000E-02     1.00352011E-24
  -1.90699995E-02     1.00145734E-24
  -1.90600008E-02     9.99239656E-25
  -1.90500002E-02     9.96873665E-25
  -1.90399997E-02     9.94367060E-25
  -1.90299992E-02     9.91728024E-25
  -1.90200005E-02     9.88966321E-25
  -1.90099999E-02     9.86091712E-25
  -1.89999994E-02     9.83115241E-25
  -1.89900007E-02     9.80048643E-25
  -1.89800002E-02     9.76903947E-25
  -1.89699996E-02     9.73693776E-25
  -1.89599991E-02     9.70431541E-25
  -1.89500004E-02     9.67130651E-25
  -1.89399999E-02     9.63805208E-25
  -1.89299993E-02     9.60469214E-25
  -1.89200006E-02     9.57137164E-25
  -1.89100001E-02     9.53823553E-25
  -1.88999996E-02     9.50542780E-25
  -1.88900009E-02     9.47309436E-25
  -1.88800003E-02     9.44137722E-25
  -1.88699998E-02     9.41042133E-25
  -1.88599993E-02     9.38036573E-25
  -1.88500006E-02     9.35134748E-25
  -1.88400000E-02     9.32349872E-25
  -1.88299995E-02     9.29694862E-25
  -1.88200008E-02     9.27182143E-25
  -1.88100003E-02     9.24823252E-25
  -1.87999997E-02     9.22629429E-25
  -1.87899992E-02     9.20610734E-25
  -1.87800005E-02     9.18776731E-25
  -1.87700000E-02     9.17135901E-25
  -1.87599994E-02     9.15695736E-25
  -1.87500007E-02     9.14462846E-25
  -1.87400002E-02     9.13442651E-25
  -1.87299997E-02     9.12639098E-25
  -1.87199991E-02     9.12055341E-25
  -1.87100004E-02     9.11693056E-25
  -1.86999999E-02     9.11552540E-25
  -1.86899994E-02     9.11632906E-25
  -1.86800007E-02     9.11931785E-25
  -1.86700001E-02     9.12445531E-25
  -1.86599996E-02     9.13168916E-25
  -1.86500009E-02     9.14095532E-25
  -1.86400004E-02     9.15217785E-25
  -1.86299998E-02     9.16526506E-25
  -1.86199993E-02     9.18011536E-25
  -1.86100006E-02     9.19661340E-25
  -1.86000001E-02     9.21463394E-25
  -1.85899995E-02     9.23404091E-25
  -1.85800008E-02     9.25468737E-25
  -1.85700003E-02     9.27642246E-25
  -1.85599998E-02     9.29908052E-25
  -1.85499992E-02     9.32249588E-25
  -1.85400005E-02     9.34649303E-25
  -1.85300000E-02     9.37089250E-25
  -1.85199995E-02     9.39551383E-25
  -1.85100008E-02     9.42017067E-25
  -1.85000002E-02     9.44467959E-25
  -1.84899997E-02     9.46885423E-25
  -1.84799992E-02     9.49251020E-25
  -1.84700005E-02     9.51546605E-25
  -1.84599999E-02     9.53754528E-25
  -1.84499994E-02     9.55857434E-25
  -1.84400007E-02     9.57838658E-25
  -1.84300002E-02     9.59682128E-25
  -1.84199996E-02     9.61372755E-25
  -1.84099991E-02     9.62896341E-25
  -1.84000004E-02     9.64239574E-25
  -1.83899999E-02     9.65390522E-25
  -1.83799993E-02     9.66338339E-25
  -1.83700006E-02     9.67073458E-25
  -1.83600001E-02     9.67587598E-25
  -1.83499996E-02     9.67873955E-25
  -1.83400009E-02     9.67927203E-25
  -1.83300003E-02     9.67743399E-25
  -1.83199998E-02     9.67320470E-25
  -1.83099993E-02     9.66657531E-25
  -1.83000006E-02     9.65755370E-25
  -1.82900000E-02     9.64616058E-25
  -1.82799995E-02     9.63243637E-25
  -1.82700008E-02     9.61643137E-25
  -1.82600003E-02     9.59821361E-25
  -1.82499997E-02     9.57786002E-25
  -1.82399992E-02     9.55546721E-25
  -1.82300005E-02     9.53113874E-25
  -1.82200000E-02     9.50499096E-25
  -1.82099994E-02     9.47714910E-25
  -1.82000007E-02     9.44775220E-25
  -1.81900002E-02     9.41694521E-25
  -1.81799997E-02     9.38488097E-25
  -1.81699991E-02     9.35172022E-25
  -1.81600004E-02     9.31763058E-25
  -1.81499999E-02     9.28278364E-25
  -1.81399994E-02     9.24735787E-25
  -1.81300007E-02     9.21153471E-25
  -1.81200001E-02     9.17549658E-25
  -1.81099996E-02     9.13943085E-25
  -1.81000009E-02     9.10352387E-25
  -1.80900004E-02     9.06796399E-25
  -1.80799998E-02     9.03293956E-25
  -1.80699993E-02     8.99863693E-25
  -1.80600006E-02     8.96524050E-25
  -1.80500001E-02     8.93293270E-25
  -1.80399995E-02     8.90189004E-25
  -1.80300009E-02     8.87228803E-25
  -1.80200003E-02     8.84429037E-25
  -1.80099998E-02     8.81805878E-25
  -1.79999992E-02     8.79374805E-25
  -1.79900005E-02     8.77149725E-25
  -1.79800000E-02     8.75144144E-25
  -1.79699995E-02     8.73370489E-25
  -1.79600008E-02     8.71839606E-25
  -1.79500002E-02     8.70561158E-25
  -1.79399997E-02     8.69543725E-25
  -1.79299992E-02     8.68794209E-25
  -1.79200005E-02     8.68317934E-25
  -1.79099999E-02     8.68118648E-25
  -1.78999994E-02     8.68198816E-25
  -1.78900007E-02     8.68558832E-25
  -1.78800002E-02     8.69197711E-25
  -1.78699996E-02     8.70112790E-25
  -1.78599991E-02     8.71299631E-25
  -1.78500004E-02     8.72752220E-25
  -1.78399999E-02     8.74462864E-25
  -1.78299993E-02     8.76422494E-25
  -1.78200006E-02     8.78620457E-25
  -1.78100001E-02     8.81044725E-25
  -1.77999996E-02     8.83681789E-25
  -1.77900009E-02     8.86517054E-25
  -1.77800003E-02     8.89534644E-25
  -1.77699998E-02     8.92717796E-25
  -1.77599993E-02     8.96048465E-25
  -1.77500006E-02     8.99508015E-25
  -1.77400000E-02     9.03077019E-25
  -1.77299995E-02     9.06735361E-25
  -1.77200008E-02     9.10462532E-25
  -1.77100003E-02     9.14237724E-25
  -1.76999997E-02     9.18039639E-25
  -1.76899992E-02     9.21847372E-25
  -1.76800005E-02     9.25639427E-25
  -1.76700000E-02     9.29395292E-25
  -1.76599994E-02     9.33094162E-25
  -1.76500008E-02     9.36715823E-25
  -1.76400002E-02     9.40240848E-25
  -1.76299997E-02     9.43650699E-25
  -1.76199991E-02     9.46927331E-25
  -1.76100004E-02     9.50053982E-25
  -1.75999999E-02     9.53014971E-25
  -1.75899994E-02     9.55795804E-25
  -1.75800007E-02     9.58383465E-25
  -1.75700001E-02     9.60766220E-25
  -1.75599996E-02     9.62933911E-25
  -1.75500009E-02     9.64877861E-25
  -1.75400004E-02     9.66591169E-25
  -1.75299998E-02     9.68068113E-25
  -1.75199993E-02     9.69305146E-25
  -1.75100006E-02     9.70299899E-25
  -1.75000001E-02     9.71051684E-25
  -1.74899995E-02     9.71561485E-25
  -1.74800009E-02     9.71831572E-25
  -1.74700003E-02     9.71865887E-25
  -1.74599998E-02     9.71669362E-25
  -1.74499992E-02     9.71248406E-25
  -1.74400005E-02     9.70610513E-25
  -1.74300000E-02     9.69764164E-25
  -1.74199995E-02     9.68718924E-25
  -1.74100008E-02     9.67485047E-25
  -1.74000002E-02     9.66073774E-25
  -1.73899997E-02     9.64496546E-25
  -1.73799992E-02     9.62766081E-25
  -1.73700005E-02     9.60895100E-25
  -1.73599999E-02     9.58897014E-25
  -1.73499994E-02     9.56785332E-25
  -1.73400007E-02     9.54573859E-25
  -1.73300002E-02     9.52276992E-25
  -1.73199996E-02     9.49909028E-25
  -1.73099991E-02     9.47484366E-25
  -1.73000004E-02     9.45017598E-25
  -1.72899999E-02     9.42523318E-25
  -1.72799993E-02     9.40016220E-25
  -1.72700007E-02     9.37510797E-25
  -1.72600001E-02     9.35021547E-25
  -1.72499996E-02     9.32563062E-25
  -1.72400009E-02     9.30149246E-25
  -1.72300003E-02     9.27794102E-25
  -1.72199998E-02     9.25511336E-25
  -1.72099993E-02     9.23314358E-25
  -1.72000006E-02     9.21215988E-25
  -1.71900000E-02     9.19228847E-25
  -1.71799995E-02     9.17364769E-25
  -1.71700008E-02     9.15635191E-25
  -1.71600003E-02     9.14050962E-25
  -1.71499997E-02     9.12621546E-25
  -1.71399992E-02     9.11356508E-25
  -1.71300005E-02     9.10264133E-25
  -1.71200000E-02     9.09351520E-25
  -1.71099994E-02     9.08625373E-25
  -1.71000008E-02     9.08090920E-25
  -1.70900002E-02     9.07752400E-25
  -1.70799997E-02     9.07613265E-25
  -1.70699991E-02     9.07675486E-25
  -1.70600004E-02     9.07940149E-25
  -1.70499999E-02     9.08406958E-25
  -1.70399994E-02     9.09074630E-25
  -1.70300007E-02     9.09940503E-25
  -1.70200001E-02     9.11000929E-25
  -1.70099996E-02     9.12251373E-25
  -1.70000009E-02     9.13685522E-25
  -1.69900004E-02     9.15296573E-25
  -1.69799998E-02     9.17076342E-25
  -1.69699993E-02     9.19015855E-25
  -1.69600006E-02     9.21105054E-25
  -1.69500001E-02     9.23333093E-25
  -1.69399995E-02     9.25688238E-25
  -1.69300009E-02     9.28158062E-25
  -1.69200003E-02     9.30729552E-25
  -1.69099998E-02     9.33389098E-25
  -1.68999992E-02     9.36122797E-25
  -1.68900006E-02     9.38916153E-25
  -1.68800000E-02     9.41754869E-25
  -1.68699995E-02     9.44624055E-25
  -1.68600008E-02     9.47509116E-25
  -1.68500002E-02     9.50395854E-25
  -1.68399997E-02     9.53269773E-25
  -1.68299992E-02     9.56117265E-25
  -1.68200005E-02     9.58924821E-25
  -1.68099999E-02     9.61679721E-25
  -1.67999994E-02     9.64369933E-25
  -1.67900007E-02     9.66983923E-25
  -1.67800002E-02     9.69511334E-25
  -1.67699996E-02     9.71942505E-25
  -1.67599991E-02     9.74268757E-25
  -1.67500004E-02     9.76482202E-25
  -1.67399999E-02     9.78576234E-25
  -1.67299993E-02     9.80544836E-25
  -1.67200007E-02     9.82383474E-25
  -1.67100001E-02     9.84088103E-25
  -1.66999996E-02     9.85655669E-25
  -1.66900009E-02     9.87083901E-25
  -1.66800003E-02     9.88371717E-25
  -1.66699998E-02     9.89518326E-25
  -1.66599993E-02     9.90523828E-25
  -1.66500006E-02     9.91388913E-25
  -1.66400000E-02     9.92114960E-25
  -1.66299995E-02     9.92703549E-25
  -1.66200008E-02     9.93156947E-25
  -1.66100003E-02     9.93477520E-25
  -1.65999997E-02     9.93668425E-25
  -1.65899992E-02     9.93732618E-25
  -1.65800005E-02     9.93673256E-25
  -1.65700000E-02     9.93494185E-25
  -1.65599994E-02     9.93199052E-25
  -1.65500008E-02     9.92791507E-25
  -1.65400002E-02     9.92275789E-25
  -1.65299997E-02     9.91656041E-25
  -1.65199991E-02     9.90936402E-25
  -1.65100005E-02     9.90121410E-25
  -1.64999999E-02     9.89215403E-25
  -1.64899994E-02     9.88223214E-25
  -1.64800007E-02     9.87149870E-25
  -1.64700001E-02     9.86000006E-25
  -1.64599996E-02     9.84779047E-25
  -1.64500009E-02     9.83492415E-25
  -1.64400004E-02     9.82145435E-25
  -1.64299998E-02     9.80743826E-25
  -1.64199993E-02     9.79293703E-25
  -1.64100006E-02     9.77801276E-25
  -1.64000001E-02     9.76272563E-25
  -1.63899995E-02     9.74714168E-25
  -1.63800009E-02     9.73132798E-25
  -1.63700003E-02     9.71535256E-25
  -1.63599998E-02     9.69928445E-25
  -1.63499992E-02     9.68319366E-25
  -1.63400006E-02     9.66715217E-25
  -1.63300000E-02     9.65123197E-25
  -1.63199995E-02     9.63550701E-25
  -1.63100008E-02     9.62004830E-25
  -1.63000003E-02     9.60492879E-25
  -1.62899997E-02     9.59022147E-25
  -1.62799992E-02     9.57599732E-25
  -1.62700005E-02     9.56232439E-25
  -1.62599999E-02     9.54927071E-25
  -1.62499994E-02     9.53690137E-25
  -1.62400007E-02     9.52528047E-25
  -1.62300002E-02     9.51446518E-25
  -1.62199996E-02     9.50451173E-25
  -1.62099991E-02     9.49547138E-25
  -1.62000004E-02     9.48738950E-25
  -1.61899999E-02     9.48030652E-25
  -1.61799993E-02     9.47425891E-25
  -1.61700007E-02     9.46927529E-25
  -1.61600001E-02     9.46537831E-25
  -1.61499996E-02     9.46258870E-25
  -1.61400009E-02     9.46091435E-25
  -1.61300004E-02     9.46036116E-25
  -1.61199998E-02     9.46092717E-25
  -1.61099993E-02     9.46260448E-25
  -1.61000006E-02     9.46538324E-25
  -1.60900000E-02     9.46924077E-25
  -1.60799995E-02     9.47415538E-25
  -1.60700008E-02     9.48009944E-25
  -1.60600003E-02     9.48704142E-25
  -1.60499997E-02     9.49494581E-25
  -1.60399992E-02     9.50377217E-25
  -1.60300005E-02     9.51348207E-25
  -1.60200000E-02     9.52403012E-25
  -1.60099994E-02     9.53537493E-25
  -1.60000008E-02     9.54747014E-25
  -1.59900002E-02     9.56026743E-25
  -1.59799997E-02     9.57372146E-25
  -1.59699991E-02     9.58778389E-25
  -1.59600005E-02     9.60240740E-25
  -1.59499999E-02     9.61754268E-25
  -1.59399994E-02     9.63314438E-25
  -1.59300007E-02     9.64916121E-25
  -1.59200002E-02     9.66554388E-25
  -1.59099996E-02     9.68224406E-25
  -1.59000009E-02     9.69921049E-25
  -1.58900004E-02     9.71639188E-25
  -1.58799998E-02     9.73373302E-25
  -1.58699993E-02     9.75118262E-25
  -1.58600006E-02     9.76868251E-25
  -1.58500001E-02     9.78617846E-25
  -1.58399995E-02     9.80360933E-25
  -1.58300009E-02     9.82091398E-25
  -1.58200003E-02     9.83803226E-25
  -1.58099998E-02     9.85490008E-25
  -1.57999992E-02     9.87145531E-25
  -1.57900006E-02     9.88763090E-25
  -1.57800000E-02     9.90336375E-25
  -1.57699995E-02     9.91858679E-25
  -1.57600008E-02     9.93323890E-25
  -1.57500003E-02     9.94725597E-25
  -1.57399997E-02     9.96057884E-25
  -1.57299992E-02     9.97314737E-25
  -1.57200005E-02     9.98490929E-25
  -1.57099999E-02     9.99581332E-25
  -1.56999994E-02     1.00058121E-24
  -1.56900007E-02     1.00148653E-24
  -1.56800002E-02     1.00229353E-24
  -1.56699996E-02     1.00299937E-24
  -1.56599991E-02     1.00360166E-24
  -1.56500004E-02     1.00409864E-24
  -1.56399999E-02     1.00448943E-24
  -1.56299993E-02     1.00477381E-24
  -1.56199997E-02     1.00495229E-24
  -1.56100001E-02     1.00502625E-24
  -1.55999996E-02     1.00499755E-24
  -1.55900000E-02     1.00486926E-24
  -1.55800004E-02     1.00464493E-24
  -1.55699998E-02     1.00432880E-24
  -1.55600002E-02     1.00392608E-24
  -1.55499997E-02     1.00344261E-24
  -1.55400001E-02     1.00288488E-24
  -1.55300004E-02     1.00225991E-24
  -1.55199999E-02     1.00157547E-24
  -1.55100003E-02     1.00083986E-24
  -1.54999997E-02     1.00006165E-24
  -1.54900001E-02     9.99250109E-25
  -1.54799996E-02     9.98414705E-25
  -1.54700000E-02     9.97565200E-25
  -1.54600004E-02     9.96711357E-25
  -1.54499998E-02     9.95863430E-25
  -1.54400002E-02     9.95031083E-25
  -1.54299997E-02     9.94224473E-25
  -1.54200001E-02     9.93453361E-25
  -1.54100005E-02     9.92727018E-25
  -1.53999999E-02     9.92054711E-25
  -1.53900003E-02     9.91445020E-25
  -1.53799998E-02     9.90906130E-25
  -1.53700002E-02     9.90445632E-25
  -1.53599996E-02     9.90070233E-25
  -1.53500000E-02     9.89786243E-25
  -1.53400004E-02     9.89599184E-25
  -1.53299998E-02     9.89513396E-25
  -1.53200002E-02     9.89533019E-25
  -1.53099997E-02     9.89660814E-25
  -1.53000001E-02     9.89899247E-25
  -1.52899995E-02     9.90249403E-25
  -1.52799999E-02     9.90712267E-25
  -1.52700003E-02     9.91287248E-25
  -1.52599998E-02     9.91973951E-25
  -1.52500002E-02     9.92770504E-25
  -1.52399996E-02     9.93674736E-25
  -1.52300000E-02     9.94683886E-25
  -1.52200004E-02     9.95794602E-25
  -1.52099999E-02     9.97002841E-25
  -1.52000003E-02     9.98304462E-25
  -1.51899997E-02     9.99694632E-25
  -1.51800001E-02     1.00116813E-24
  -1.51699996E-02     1.00271942E-24
  -1.51600000E-02     1.00434270E-24
  -1.51500003E-02     1.00603165E-24
  -1.51399998E-02     1.00777996E-24
  -1.51300002E-02     1.00958064E-24
  -1.51199996E-02     1.01142677E-24
  -1.51100000E-02     1.01331096E-24
  -1.51000004E-02     1.01522592E-24
  -1.50899999E-02     1.01716376E-24
  -1.50800003E-02     1.01911649E-24
  -1.50699997E-02     1.02107592E-24
  -1.50600001E-02     1.02303367E-24
  -1.50499996E-02     1.02498137E-24
  -1.50400000E-02     1.02691014E-24
  -1.50300004E-02     1.02881129E-24
  -1.50199998E-02     1.03067586E-24
  -1.50100002E-02     1.03249488E-24
  -1.49999997E-02     1.03425936E-24
  -1.49900001E-02     1.03596064E-24
  -1.49800004E-02     1.03758983E-24
  -1.49699999E-02     1.03913807E-24
  -1.49600003E-02     1.04059717E-24
  -1.49499997E-02     1.04195864E-24
  -1.49400001E-02     1.04321490E-24
  -1.49299996E-02     1.04435836E-24
  -1.49200000E-02     1.04538220E-24
  -1.49100004E-02     1.04627983E-24
  -1.48999998E-02     1.04704561E-24
  -1.48900002E-02     1.04767443E-24
  -1.48799997E-02     1.04816175E-24
  -1.48700001E-02     1.04850422E-24
  -1.48600005E-02     1.04869887E-24
  -1.48499999E-02     1.04874413E-24
  -1.48400003E-02     1.04863901E-24
  -1.48299998E-02     1.04838362E-24
  -1.48200002E-02     1.04797933E-24
  -1.48099996E-02     1.04742821E-24
  -1.48000000E-02     1.04673362E-24
  -1.47900004E-02     1.04590009E-24
  -1.47799999E-02     1.04493295E-24
  -1.47700002E-02     1.04383889E-24
  -1.47599997E-02     1.04262553E-24
  -1.47500001E-02     1.04130152E-24
  -1.47399995E-02     1.03987635E-24
  -1.47299999E-02     1.03836075E-24
  -1.47200003E-02     1.03676607E-24
  -1.47099998E-02     1.03510433E-24
  -1.47000002E-02     1.03338836E-24
  -1.46899996E-02     1.03163167E-24
  -1.46800000E-02     1.02984795E-24
  -1.46700004E-02     1.02805152E-24
  -1.46599999E-02     1.02625647E-24
  -1.46500003E-02     1.02447749E-24
  -1.46399997E-02     1.02272898E-24
  -1.46300001E-02     1.02102513E-24
  -1.46199996E-02     1.01937997E-24
  -1.46100000E-02     1.01780688E-24
  -1.46000003E-02     1.01631879E-24
  -1.45899998E-02     1.01492793E-24
  -1.45800002E-02     1.01364583E-24
  -1.45699997E-02     1.01248305E-24
  -1.45600000E-02     1.01144915E-24
  -1.45500004E-02     1.01055271E-24
  -1.45399999E-02     1.00980122E-24
  -1.45300003E-02     1.00920110E-24
  -1.45199997E-02     1.00875736E-24
  -1.45100001E-02     1.00847386E-24
  -1.44999996E-02     1.00835356E-24
  -1.44900000E-02     1.00839794E-24
  -1.44800004E-02     1.00860708E-24
  -1.44699998E-02     1.00898041E-24
  -1.44600002E-02     1.00951595E-24
  -1.44499997E-02     1.01021025E-24
  -1.44400001E-02     1.01105955E-24
  -1.44300004E-02     1.01205874E-24
  -1.44199999E-02     1.01320161E-24
  -1.44100003E-02     1.01448144E-24
  -1.43999998E-02     1.01589044E-24
  -1.43900001E-02     1.01742004E-24
  -1.43799996E-02     1.01906136E-24
  -1.43700000E-02     1.02080465E-24
  -1.43600004E-02     1.02263954E-24
  -1.43499998E-02     1.02455529E-24
  -1.43400002E-02     1.02654105E-24
  -1.43299997E-02     1.02858538E-24
  -1.43200001E-02     1.03067645E-24
  -1.43100005E-02     1.03280263E-24
  -1.42999999E-02     1.03495188E-24
  -1.42900003E-02     1.03711238E-24
  -1.42799998E-02     1.03927198E-24
  -1.42700002E-02     1.04141896E-24
  -1.42599996E-02     1.04354169E-24
  -1.42500000E-02     1.04562862E-24
  -1.42400004E-02     1.04766852E-24
  -1.42299999E-02     1.04965053E-24
  -1.42200002E-02     1.05156411E-24
  -1.42099997E-02     1.05339930E-24
  -1.42000001E-02     1.05514652E-24
  -1.41899996E-02     1.05679682E-24
  -1.41799999E-02     1.05834161E-24
  -1.41700003E-02     1.05977300E-24
  -1.41599998E-02     1.06108369E-24
  -1.41500002E-02     1.06226728E-24
  -1.41399996E-02     1.06331804E-24
  -1.41300000E-02     1.06423065E-24
  -1.41200004E-02     1.06500088E-24
  -1.41099999E-02     1.06562516E-24
  -1.41000003E-02     1.06610075E-24
  -1.40899997E-02     1.06642566E-24
  -1.40800001E-02     1.06659871E-24
  -1.40699996E-02     1.06661982E-24
  -1.40600000E-02     1.06648965E-24
  -1.40500003E-02     1.06620961E-24
  -1.40399998E-02     1.06578214E-24
  -1.40300002E-02     1.06521052E-24
  -1.40199997E-02     1.06449886E-24
  -1.40100000E-02     1.06365212E-24
  -1.40000004E-02     1.06267620E-24
  -1.39899999E-02     1.06157761E-24
  -1.39800003E-02     1.06036385E-24
  -1.39699997E-02     1.05904310E-24
  -1.39600001E-02     1.05762414E-24
  -1.39499996E-02     1.05611653E-24
  -1.39400000E-02     1.05453023E-24
  -1.39300004E-02     1.05287579E-24
  -1.39199998E-02     1.05116426E-24
  -1.39100002E-02     1.04940677E-24