  -3.00000003E-03    -9.91023315E-24
  -2.89999996E-03     1.70400992E-23
  -2.79999990E-03    -5.02801994E-24
  -2.70000007E-03    -1.61414924E-24
  -2.60000001E-03    -1.68492706E-23
  -2.49999994E-03     1.95898759E-23
  -2.40000011E-03     1.91551994E-23
  -2.30000005E-03     5.54222749E-24
  -2.19999999E-03    -3.29324879E-23
  -2.09999993E-03    -3.76716455E-23
  -2.00000009E-03     2.50180610E-23
  -1.90000003E-03     5.48680591E-23
  -1.79999997E-03    -6.92578302E-24
  -1.70000002E-03    -5.16980341E-23
  -1.59999996E-03    -2.66772311E-23
  -1.50000001E-03     4.85652655E-23
  -1.39999995E-03     6.71452402E-23
  -1.30000000E-03     4.68863857E-24
  -1.20000006E-03    -7.25046476E-23
  -1.09999999E-03    -1.11090649E-22
  -1.00000005E-03     2.74990506E-23
  -8.99999985E-04     1.44269747E-22
  -7.99999980E-04     7.09567699E-23
  -6.99999975E-04    -8.73630636E-23
  -6.00000028E-04    -1.51777255E-22
  -5.00000024E-04    -1.99891027E-23
  -3.99999990E-04     1.35062895E-22
  -3.00000014E-04     1.07339382E-22
  -1.99999995E-04    -1.20312813E-23
  -9.99999975E-05    -1.17612711E-22
   0.00000000        -1.06250085E-22
   9.99999975E-05    -5.91783138E-24
   1.99999995E-04     1.92483639E-22
   3.00000014E-04     3.17722098E-22
   3.99999990E-04     3.37358045E-22
   5.00000024E-04     1.80350832E-22
   6.00000028E-04    -4.46892505E-22
   6.99999975E-04    -2.46941847E-21
   7.99999980E-04    -7.26320639E-21
   8.99999985E-04    -1.47215208E-20
   1.00000005E-03    -1.83238245E-20
   1.09999999E-03     2.06623093E-21
   1.20000006E-03     8.36103306E-20
   1.30000000E-03     2.62198341E-19
   1.39999995E-03     4.99724262E-19
   1.50000001E-03     5.36739715E-19
   1.59999996E-03    -2.58294048E-19
   1.70000002E-03    -2.76550860E-18
   1.79999997E-03    -7.21745277E-18
   1.90000003E-03    -1.11825306E-17
   2.00000009E-03    -7.21601513E-18
   2.09999993E-03     1.67130221E-17
   2.19999999E-03     6.88036922E-17
   2.30000005E-03     1.33639776E-16
   2.40000011E-03     1.47844188E-16
   2.49999994E-03    -3.83059608E-18
   2.60000001E-03    -4.32243348E-16
   2.70000007E-03    -1.09973390E-15
   2.79999990E-03    -1.62232030E-15
   2.89999996E-03    -1.16236277E-15
   3.00000003E-03     1.33850402E-15
   3.10000009E-03     6.34714229E-15
   3.19999992E-03     1.23755689E-14
   3.29999998E-03     1.46962774E-14
   3.40000005E-03     5.55280368E-15
   3.50000011E-03    -2.22892654E-14
   3.59999994E-03    -6.76726944E-14
   3.70000000E-03    -1.10905480E-13
   3.80000006E-03    -1.08320301E-13
   3.89999989E-03    -2.75403636E-15
   4.00000019E-03     2.40409851E-13
   4.10000002E-03     5.74714267E-13
   4.19999985E-03     8.18870525E-13
   4.30000015E-03     6.60400987E-13
   4.39999998E-03    -2.25697404E-13
   4.49999981E-03    -1.92454603E-12
   4.60000010E-03    -3.96622665E-12
   4.69999993E-03    -5.13251507E-12
   4.80000023E-03    -3.64337423E-12
   4.90000006E-03     2.06903331E-12
   4.99999989E-03     1.20252914E-11
   5.10000018E-03     2.32412388E-11
   5.20000001E-03     2.90514054E-11
   5.29999984E-03     2.03713556E-11
   5.40000014E-03    -1.02625053E-11
   5.49999997E-03    -6.22182375E-11
   5.59999980E-03    -1.20168667E-10
   5.70000010E-03    -1.51693574E-10
   5.79999993E-03    -1.14089904E-10
   5.90000022E-03     2.67723378E-11
   6.00000005E-03     2.68374545E-10
   6.09999988E-03     5.44931045E-10
   6.20000018E-03     7.19452109E-10
   6.30000001E-03     6.12109585E-10
   6.39999984E-03     7.29671185E-11
   6.50000013E-03    -9.12713627E-10
   6.59999996E-03    -2.12350160E-09
   6.69999979E-03    -3.06234704E-09
   6.80000009E-03    -3.03840753E-09
   6.89999992E-03    -1.40343370E-09
   7.00000022E-03     2.08372608E-09
   7.10000005E-03     6.87356394E-09
   7.19999988E-03     1.14088605E-08
   7.30000017E-03     1.32849962E-08
   7.40000000E-03     9.92687177E-09
   7.49999983E-03    -2.62726757E-10
   7.60000013E-03    -1.65876823E-08
   7.69999996E-03    -3.51159422E-08
   7.79999979E-03    -4.87351954E-08
   7.89999962E-03    -4.86639955E-08
   8.00000038E-03    -2.74347958E-08
   8.10000021E-03     1.72613728E-08
   8.20000004E-03     7.90941783E-08
   8.29999987E-03     1.41564442E-07
   8.39999970E-03     1.79882434E-07
   8.50000046E-03     1.66957463E-07
   8.60000029E-03     8.28683895E-08
   8.70000012E-03    -7.44102877E-08
   8.79999995E-03    -2.80619702E-07
   8.89999978E-03    -4.83180656E-07
   8.99999961E-03    -6.08551147E-07
   9.10000037E-03    -5.79539005E-07
   9.20000020E-03    -3.39800806E-07
   9.30000003E-03     1.20373727E-07
   9.39999986E-03     7.44554427E-07
   9.49999969E-03     1.40425175E-06
   9.60000046E-03     1.91163144E-06
   9.70000029E-03     2.05232595E-06
   9.80000012E-03     1.63563607E-06
   9.89999995E-03     5.54840710E-07
   9.99999978E-03    -1.15374883E-06
   1.00999996E-02    -3.26771033E-06
   1.02000004E-02    -5.36729340E-06
   1.03000002E-02    -6.86989733E-06
   1.04000000E-02    -7.11815119E-06
   1.04999999E-02    -5.51956828E-06
   1.05999997E-02    -1.72347211E-06
   1.07000005E-02     4.19355592E-06
   1.08000003E-02     1.15747507E-05
   1.09000001E-02     1.91136478E-05
   1.09999999E-02     2.49205768E-05
   1.10999998E-02     2.67643281E-05
   1.11999996E-02     2.24995492E-05
   1.13000004E-02     1.06420284E-05
   1.14000002E-02    -9.00012219E-06
   1.15000000E-02    -3.47784189E-05
   1.15999999E-02    -6.29013739E-05
   1.16999997E-02    -8.75287951E-05
   1.18000004E-02    -1.01369085E-04
   1.19000003E-02    -9.68123568E-05
   1.20000001E-02    -6.75318006E-05
   1.20999999E-02    -1.03717348E-05
   1.21999998E-02     7.27775987E-05
   1.22999996E-02     1.73526816E-04
   1.24000004E-02     2.76412786E-04
   1.25000002E-02     3.59629805E-04
   1.26000000E-02     3.97360476E-04
   1.26999998E-02     3.63751693E-04
   1.27999997E-02     2.38258261E-04
   1.29000004E-02     1.17152276E-05
   1.30000003E-02    -3.07832292E-04
   1.31000001E-02    -6.90755609E-04
   1.31999999E-02    -1.08422129E-03
   1.32999998E-02    -1.41451205E-03
   1.33999996E-02    -1.59402785E-03
   1.35000004E-02    -1.53312879E-03
   1.36000002E-02    -1.15604606E-03
   1.37000000E-02    -4.19194956E-04
   1.37999998E-02     6.70596375E-04
   1.38999997E-02     2.04108702E-03
   1.40000004E-02     3.54628940E-03
   1.41000003E-02     4.96782502E-03
   1.42000001E-02     6.02872903E-03
   1.42999999E-02     6.42049592E-03
   1.43999998E-02     5.84319420E-03
   1.44999996E-02     4.05624276E-03
   1.46000003E-02     9.35085351E-04
   1.47000002E-02    -3.47266509E-03
   1.48000000E-02    -8.89904611E-03
   1.48999998E-02    -1.48241892E-02
   1.49999997E-02    -2.04687696E-02
   1.51000004E-02    -2.48174332E-02
   1.52000003E-02    -2.66759321E-02
   1.53000001E-02    -2.47627534E-02
   1.53999999E-02    -1.78287569E-02
   1.54999997E-02    -4.79602115E-03
   1.55999996E-02     1.50937531E-02
   1.56999994E-02     4.21427749E-02
   1.57999992E-02     7.60855079E-02
   1.59000009E-02    0.116024077    
   1.60000008E-02    0.160414770    
   1.61000006E-02    0.207124978    
   1.62000004E-02    0.253552794    
   1.63000003E-02    0.296813220    
   1.64000001E-02    0.333966345    
   1.64999999E-02    0.362267792    
   1.65999997E-02    0.379417390    
   1.66999996E-02    0.383791685    
   1.67999994E-02    0.374618471    
   1.68999992E-02    0.352062434    
   1.70000009E-02    0.317237914    
   1.71000008E-02    0.272135258    
   1.72000006E-02    0.219452992    
   1.73000004E-02    0.162371159    
   1.74000002E-02    0.104283199    
   1.75000001E-02     4.85090725E-02
   1.75999999E-02    -1.99309178E-03
   1.76999997E-02    -4.48546968E-02
   1.77999996E-02    -7.84335881E-02
   1.78999994E-02   -0.101895653    
   1.79999992E-02   -0.115333170    
   1.81000009E-02   -0.119613744    
   1.82000007E-02   -0.116276540    
   1.83000006E-02   -0.107270770    
   1.84000004E-02    -9.48736891E-02
   1.85000002E-02    -8.13290626E-02
   1.86000001E-02    -6.86887056E-02
   1.86999999E-02    -5.86002022E-02
   1.87999997E-02    -5.23641482E-02
   1.88999996E-02    -5.05619980E-02
   1.89999994E-02    -5.31855039E-02
   1.90999992E-02    -5.96308857E-02
   1.92000009E-02    -6.90809116E-02
   1.93000007E-02    -8.05416554E-02
   1.94000006E-02    -9.27886888E-02
   1.95000004E-02   -0.104607783    
   1.96000002E-02   -0.115108281    
   1.97000001E-02   -0.123844981    
   1.97999999E-02   -0.130611017    
   1.98999997E-02   -0.135545999    
   1.99999996E-02   -0.138835192    
   2.00999994E-02   -0.140826494    
   2.01999992E-02   -0.141799524    
   2.03000009E-02   -0.142027542    
   2.04000007E-02   -0.141506448    
   2.05000006E-02   -0.140124708    
   2.06000004E-02   -0.137652576    
   2.07000002E-02   -0.133995518    
   2.08000001E-02   -0.129085243    
   2.08999999E-02   -0.123285189    
   2.09999997E-02   -0.117291659    
   2.10999995E-02   -0.112044573    
   2.11999994E-02   -0.108471639    
   2.12999992E-02   -0.107457399    
   2.14000009E-02   -0.109816000    
   2.15000007E-02   -0.115938216    
   2.16000006E-02   -0.125409126    
   2.17000004E-02   -0.137178406    
   2.18000002E-02   -0.149771899    
   2.19000001E-02   -0.161349103    
   2.19999999E-02   -0.170048758    
   2.20999997E-02   -0.174313158    
   2.21999995E-02   -0.173218668    
   2.22999994E-02   -0.166667685    
   2.23999992E-02   -0.155378014    
   2.25000009E-02   -0.140768766    
   2.26000007E-02   -0.124977492    
   2.27000006E-02   -0.110273845    
   2.28000004E-02    -9.87544134E-02
   2.29000002E-02    -9.18498635E-02
   2.30000000E-02    -9.01174918E-02
   2.30999999E-02    -9.32773948E-02
   2.31999997E-02   -0.100320973    
   2.32999995E-02   -0.109681457    
   2.33999994E-02   -0.119370937    
   2.34999992E-02   -0.127452850    
   2.36000009E-02   -0.132452458    
   2.37000007E-02   -0.133617431    
   2.38000005E-02   -0.131045610    
   2.39000004E-02   -0.125388294    
   2.40000002E-02   -0.117601141    
   2.41000000E-02   -0.108880848    
   2.41999999E-02   -0.100524724    
   2.42999997E-02    -9.33556110E-02
   2.43999995E-02    -8.75477269E-02
   2.44999994E-02    -8.29743147E-02
   2.45999992E-02    -7.92011097E-02
   2.47000009E-02    -7.54861534E-02
   2.48000007E-02    -7.10561797E-02
   2.49000005E-02    -6.55467659E-02
   2.50000004E-02    -5.91938533E-02
   2.51000002E-02    -5.26792593E-02
   2.52000000E-02    -4.68940251E-02
   2.52999999E-02    -4.26893234E-02
   2.53999997E-02    -4.07377779E-02
   2.54999995E-02    -4.13318053E-02
   2.55999994E-02    -4.42799889E-02
   2.56999992E-02    -4.87296507E-02
   2.58000009E-02    -5.33505641E-02
   2.59000007E-02    -5.66656329E-02
   2.60000005E-02    -5.73843904E-02
   2.61000004E-02    -5.45346774E-02
   2.62000002E-02    -4.75485399E-02
   2.63000000E-02    -3.64511125E-02
   2.63999999E-02    -2.19690278E-02
   2.64999997E-02    -5.50688710E-03
   2.65999995E-02     1.10874884E-02
   2.66999993E-02     2.58985646E-02
   2.67999992E-02     3.73108275E-02
   2.69000009E-02     4.42899317E-02
   2.70000007E-02     4.65186089E-02
   2.71000005E-02     4.44109105E-02
   2.72000004E-02     3.89464162E-02
   2.73000002E-02     3.14115472E-02
   2.74000000E-02     2.31750850E-02
   2.74999999E-02     1.56042064E-02
   2.75999997E-02     1.01323947E-02
   2.76999995E-02     8.16021673E-03
   2.77999993E-02     1.08375540E-02
   2.78999992E-02     1.86948497E-02
   2.80000009E-02     3.12870033E-02
   2.81000007E-02     4.72387709E-02
   2.82000005E-02     6.45532161E-02
   2.83000004E-02     8.10829774E-02
   2.84000002E-02     9.49843526E-02
   2.85000000E-02    0.104974009    
   2.85999998E-02    0.110402584    
   2.86999997E-02    0.111307412    
   2.87999995E-02    0.108096257    
   2.88999993E-02    0.101507202    
   2.89999992E-02     9.26607698E-02
   2.91000009E-02     8.32014605E-02
   2.92000007E-02     7.53259659E-02
   2.93000005E-02     7.11847618E-02
   2.94000003E-02     7.22442344E-02
   2.95000002E-02     7.88811222E-02
   2.96000000E-02     8.99564177E-02
   2.96999998E-02    0.103209652    
   2.97999997E-02    0.116076879    
   2.98999995E-02    0.126656905    
   2.99999993E-02    0.134234905    
   3.00999992E-02    0.139002800    
   3.02000009E-02    0.141514406    
   3.03000007E-02    0.141882151    
   3.04000005E-02    0.139835492    
   3.05000003E-02    0.135329649    
   3.06000002E-02    0.129107609    
   3.07000000E-02    0.122936733    
   3.07999998E-02    0.118801765    
   3.08999997E-02    0.118168674    
   3.09999995E-02    0.121415466    
   3.10999993E-02    0.127506673    
   3.11999992E-02    0.134445086    
   3.13000008E-02    0.139956504    
   3.13999988E-02    0.142622113    
   3.15000005E-02    0.142451018    
   3.15999985E-02    0.140989617    
   3.17000002E-02    0.139818773    
   3.18000019E-02    0.139495924    
   3.18999998E-02    0.139216051    
   3.20000015E-02    0.137670293    
   3.20999995E-02    0.134246290    
   3.22000012E-02    0.129630625    
   3.22999991E-02    0.125487641    
   3.24000008E-02    0.123806886    
   3.24999988E-02    0.125550583    
   3.26000005E-02    0.129983962    
   3.26999985E-02    0.134898096    
   3.28000002E-02    0.137799397    
   3.29000019E-02    0.137289211    
   3.29999998E-02    0.133783102    
   3.31000015E-02    0.129127592    
   3.31999995E-02    0.125339806    
   3.33000012E-02    0.123405047    
   3.33999991E-02    0.122703515    
   3.35000008E-02    0.121266074    
   3.35999988E-02    0.117300101    
   3.37000005E-02    0.110174082    
   3.37999985E-02    0.101242825    
   3.39000002E-02     9.32678282E-02
   3.40000018E-02     8.87003765E-02
   3.40999998E-02     8.81564766E-02
   3.42000015E-02     9.02251080E-02
   3.42999995E-02     9.23331305E-02
   3.44000012E-02     9.23057944E-02
   3.44999991E-02     8.97742882E-02
   3.46000008E-02     8.61808732E-02
   3.46999988E-02     8.38675126E-02
   3.48000005E-02     8.43161717E-02
   3.48999985E-02     8.69879723E-02
   3.50000001E-02     8.91778246E-02
   3.51000018E-02     8.73148143E-02
   3.51999998E-02     7.91482180E-02
   3.53000015E-02     6.53620064E-02
   3.53999995E-02     4.94419411E-02
   3.55000012E-02     3.57120968E-02
   3.55999991E-02     2.70007122E-02
   3.57000008E-02     2.32258234E-02
   3.57999988E-02     2.19834689E-02
   3.59000005E-02     2.04499178E-02
   3.59999985E-02     1.73623692E-02
   3.61000001E-02     1.39041888E-02
   3.62000018E-02     1.28876669E-02
   3.62999998E-02     1.66254174E-02
   3.64000015E-02     2.47731134E-02
   3.64999995E-02     3.38103473E-02
   3.66000012E-02     3.85610573E-02
   3.66999991E-02     3.50038409E-02
   3.68000008E-02     2.25605201E-02
   3.68999988E-02     4.46729455E-03
   3.70000005E-02    -1.39571764E-02
   3.70999984E-02    -2.81194579E-02
   3.72000001E-02    -3.64566445E-02
   3.73000018E-02    -4.08780798E-02
   3.73999998E-02    -4.49566394E-02
   3.75000015E-02    -5.10742441E-02
   3.75999995E-02    -5.85082956E-02
   3.77000012E-02    -6.39274940E-02
   3.77999991E-02    -6.39484078E-02
   3.79000008E-02    -5.77360801E-02
   3.79999988E-02    -4.78751883E-02
   3.81000005E-02    -3.90446074E-02
   3.81999984E-02    -3.55367213E-02
   3.83000001E-02    -3.92032899E-02
   3.84000018E-02    -4.87637892E-02
   3.84999998E-02    -6.05490282E-02
   3.86000015E-02    -7.06795454E-02
   3.86999995E-02    -7.72864223E-02
   3.88000011E-02    -8.13705176E-02
   3.88999991E-02    -8.58012363E-02
   3.90000008E-02    -9.28901583E-02
   3.90999988E-02   -0.102723949    
   3.92000005E-02   -0.113121472    
   3.92999984E-02   -0.120941252    
   3.94000001E-02   -0.123938203    
   3.95000018E-02   -0.121956274    
   3.95999998E-02   -0.116899922    
   3.97000015E-02   -0.111551248    
   3.97999994E-02   -0.107874550    
   3.99000011E-02   -0.106229208    
   3.99999991E-02   -0.105926335    
   4.01000008E-02   -0.106183328    
   4.01999988E-02   -0.106896266    
   4.03000005E-02   -0.108352453    
   4.03999984E-02   -0.110779829    
   4.05000001E-02   -0.114324056    
   4.06000018E-02   -0.119265147    
   4.06999998E-02   -0.126081720    
   4.08000015E-02   -0.134668663    
   4.08999994E-02   -0.143775150    
   4.10000011E-02   -0.151564926    
   4.10999991E-02   -0.156484812    
   4.12000008E-02   -0.157860488    
   4.12999988E-02   -0.155512318    
   4.14000005E-02   -0.149708569    
   4.14999984E-02   -0.141499624    
   4.16000001E-02   -0.132795051    
   4.17000018E-02   -0.125933409    
   4.17999998E-02   -0.122373410    
   4.19000015E-02   -0.121849909    
   4.19999994E-02   -0.122529335    
   4.21000011E-02   -0.122576594    
   4.21999991E-02   -0.121663459    
   4.23000008E-02   -0.121249095    
   4.23999988E-02   -0.123477072    
   4.25000004E-02   -0.129532173    
   4.25999984E-02   -0.138575062    
   4.27000001E-02   -0.147586316    
   4.28000018E-02   -0.152752206    
   4.28999998E-02   -0.151650399    
   4.30000015E-02   -0.144398302    
   4.30999994E-02   -0.133646786    
   4.32000011E-02   -0.122836664    
   4.32999991E-02   -0.114827961    
   4.34000008E-02   -0.110969834    
   4.34999987E-02   -0.110489056    
   4.36000004E-02   -0.110666774    
   4.36999984E-02   -0.108000875    
   4.38000001E-02   -0.100985199    
   4.39000018E-02    -9.16593447E-02
   4.39999998E-02    -8.46392587E-02
   4.41000015E-02    -8.41526091E-02
   4.41999994E-02    -9.07985941E-02
   4.43000011E-02   -0.101018585    
   4.43999991E-02   -0.109037936    
   4.45000008E-02   -0.110192038    
   4.45999987E-02   -0.103263535    
   4.47000004E-02    -9.08949152E-02
   4.47999984E-02    -7.81692117E-02
   4.49000001E-02    -6.98636323E-02
   4.50000018E-02    -6.79134876E-02
   4.50999998E-02    -7.02042505E-02
   4.52000014E-02    -7.19197467E-02
   4.52999994E-02    -6.83594346E-02
   4.54000011E-02    -5.77071942E-02
   4.54999991E-02    -4.23938110E-02
   4.56000008E-02    -2.82384697E-02
   4.56999987E-02    -2.12845933E-02
   4.58000004E-02    -2.41268966E-02
   4.58999984E-02    -3.37311029E-02
   4.60000001E-02    -4.27968949E-02
   4.61000018E-02    -4.41850796E-02
   4.61999997E-02    -3.54740731E-02
   4.63000014E-02    -2.04543266E-02
   4.63999994E-02    -6.51328033E-03
   4.65000011E-02     5.62702417E-06
   4.65999991E-02    -2.54725991E-03
   4.67000008E-02    -1.03712613E-02
   4.67999987E-02    -1.63523201E-02
   4.69000004E-02    -1.39265088E-02
   4.69999984E-02    -8.60371976E-04
   4.71000001E-02     1.91161260E-02
   4.72000018E-02     3.80586572E-02
   4.72999997E-02     4.83193472E-02
   4.74000014E-02     4.70617078E-02
   4.74999994E-02     3.79070081E-02
   4.76000011E-02     2.86983848E-02
   4.76999991E-02     2.69232467E-02
   4.78000008E-02     3.53671573E-02
   4.78999987E-02     5.04102558E-02
   4.80000004E-02     6.41450733E-02
   4.80999984E-02     6.91467449E-02
   4.82000001E-02     6.33861721E-02
   4.83000018E-02     5.18025719E-02
   4.83999997E-02     4.35263440E-02
   4.85000014E-02     4.61674817E-02
   4.85999994E-02     6.11623749E-02
   4.87000011E-02     8.29815343E-02
   4.87999991E-02    0.102362692    
   4.89000008E-02    0.111409821    
   4.89999987E-02    0.107769042    
   4.91000004E-02     9.59480703E-02
   4.91999984E-02     8.48587081E-02
   4.93000001E-02     8.26252475E-02
   4.94000018E-02     9.18396935E-02
   4.94999997E-02    0.107970022    
   4.96000014E-02    0.122176848    
   4.96999994E-02    0.126916498    
   4.98000011E-02    0.120176166    
   4.98999991E-02    0.106854938    
   5.00000007E-02     9.58858505E-02
   5.00999987E-02     9.53833312E-02
   5.02000004E-02    0.107651301    
   5.02999984E-02    0.127581507    
   5.04000001E-02    0.145390958    
   5.05000018E-02    0.152181074    
   5.05999997E-02    0.145328537    
   5.07000014E-02    0.130081698    
   5.07999994E-02    0.116237760    
   5.09000011E-02    0.112522945    
   5.09999990E-02    0.121617950    
   5.11000007E-02    0.138774514    
   5.11999987E-02    0.154463500    
   5.13000004E-02    0.159662917    
   5.13999984E-02    0.151319027    
   5.15000001E-02    0.134268001    
   5.16000018E-02    0.118499264    
   5.16999997E-02    0.113233164    
   5.18000014E-02    0.121467762    
   5.18999994E-02    0.138413176    
   5.20000011E-02    0.154265285    
   5.20999990E-02    0.159645662    
   5.22000007E-02    0.151141241    
   5.22999987E-02    0.133261606    
   5.24000004E-02    0.116189040    
   5.24999984E-02    0.109920807    
   5.26000001E-02    0.118197605    
   5.27000017E-02    0.136051327    
   5.27999997E-02    0.152590334    
   5.29000014E-02    0.157541171    
   5.29999994E-02    0.147081003    
   5.31000011E-02    0.126043037    
   5.31999990E-02    0.105237022    
   5.33000007E-02     9.50728357E-02
   5.33999987E-02     9.96038839E-02
   5.35000004E-02    0.114085704    
   5.35999984E-02    0.128250942    
   5.37000000E-02    0.132579625    
   5.38000017E-02    0.123975486    
   5.38999997E-02    0.107039593    
   5.40000014E-02     9.08809379E-02
   5.40999994E-02     8.37526247E-02
   5.42000011E-02     8.83910730E-02
   5.42999990E-02    0.100670837    
   5.44000007E-02    0.112016231    
   5.44999987E-02    0.114185914    
   5.46000004E-02    0.103891134    
   5.46999983E-02     8.45674649E-02
   5.48000000E-02     6.44194856E-02
   5.49000017E-02     5.18779717E-02
   5.49999997E-02     5.09313196E-02
   5.51000014E-02     5.90368584E-02
   5.51999994E-02     6.89985678E-02
   5.53000011E-02     7.32737929E-02
   5.53999990E-02     6.82376102E-02
   5.55000007E-02     5.59661910E-02
   5.55999987E-02     4.24416400E-02
   5.57000004E-02     3.35357487E-02
   5.57999983E-02     3.16498540E-02
   5.59000000E-02     3.50589864E-02
   5.60000017E-02     3.96909639E-02
   5.60999997E-02     4.15338129E-02
   5.62000014E-02     3.82131189E-02
   5.62999994E-02     2.94901077E-02
   5.64000010E-02     1.71817429E-02
   5.64999990E-02     4.62025544E-03
   5.66000007E-02    -4.60440619E-03
   5.66999987E-02    -8.37620068E-03
   5.68000004E-02    -7.35920947E-03
   5.68999983E-02    -4.81110532E-03
   5.70000000E-02    -4.79478715E-03
   5.71000017E-02    -9.84335318E-03
   5.71999997E-02    -1.95047650E-02
   5.73000014E-02    -3.06991674E-02
   5.73999994E-02    -3.95478494E-02
   5.75000010E-02    -4.35062721E-02
   5.75999990E-02    -4.24110666E-02
   5.77000007E-02    -3.81793566E-02
   5.77999987E-02    -3.37054990E-02
   5.79000004E-02    -3.19436789E-02
   5.79999983E-02    -3.51762138E-02
   5.81000000E-02    -4.41930518E-02
   5.82000017E-02    -5.72837591E-02
   5.82999997E-02    -7.03387409E-02
   5.84000014E-02    -7.87129700E-02
   5.84999993E-02    -8.02715570E-02
   5.86000010E-02    -7.72641003E-02
   5.86999990E-02    -7.51307085E-02
   5.88000007E-02    -7.86579177E-02
   5.88999987E-02    -8.85935500E-02
   5.90000004E-02   -0.101292245    
   5.90999983E-02   -0.111134283    
   5.92000000E-02   -0.114050865    
   5.93000017E-02   -0.109472811    
   5.93999997E-02   -0.100280322    
   5.95000014E-02    -9.11576003E-02
   5.95999993E-02    -8.64654109E-02
   5.97000010E-02    -8.88210759E-02
   5.97999990E-02    -9.80522037E-02
   5.99000007E-02   -0.111001678    
   5.99999987E-02   -0.122489013    
   6.01000004E-02   -0.127969176    
   6.01999983E-02   -0.126256749    
   6.03000000E-02   -0.120767303    
   6.04000017E-02   -0.117548250    
   6.04999997E-02   -0.121184997    
   6.06000014E-02   -0.131562442    
   6.06999993E-02   -0.143878788    
   6.08000010E-02   -0.151920035    
   6.08999990E-02   -0.152161390    
   6.10000007E-02   -0.145427898    
   6.10999987E-02   -0.135563821    
   6.12000003E-02   -0.126806110    
   6.12999983E-02   -0.122069106    
   6.14000000E-02   -0.122465976    
   6.15000017E-02   -0.127378315    
   6.15999997E-02   -0.134245545    
   6.17000014E-02   -0.139272153    
   6.17999993E-02   -0.139401555    
   6.19000010E-02   -0.134742424    
   6.19999990E-02   -0.128671676    
   6.21000007E-02   -0.125802189    
   6.21999986E-02   -0.128862321    
   6.23000003E-02   -0.136839420    
   6.23999983E-02   -0.145888075    
   6.25000000E-02   -0.151857212    
   6.26000017E-02   -0.152515888    
   6.27000034E-02   -0.148226589    
   6.27999976E-02   -0.140694499    
   6.28999993E-02   -0.131815761    
   6.30000010E-02   -0.123319395    
   6.31000027E-02   -0.116816573    
   6.31999969E-02   -0.113688231    
   6.32999986E-02   -0.114018604    
   6.34000003E-02   -0.115779907    
   6.35000020E-02   -0.115739487    
   6.36000037E-02   -0.111855485    
   6.36999980E-02   -0.105006456    
   6.37999997E-02    -9.86120030E-02
   6.39000013E-02    -9.60762724E-02
   6.40000030E-02    -9.82933715E-02
   6.40999973E-02   -0.103645183    
   6.41999990E-02   -0.109597355    
   6.43000007E-02   -0.113740064    
   6.44000024E-02   -0.114012413    
   6.44999966E-02   -0.108602710    
   6.45999983E-02    -9.72809717E-02
   6.47000000E-02    -8.26074332E-02
   6.48000017E-02    -6.97348639E-02
   6.49000034E-02    -6.33971468E-02
   6.49999976E-02    -6.47152737E-02
   6.50999993E-02    -6.97960109E-02
   6.52000010E-02    -7.21362904E-02
   6.53000027E-02    -6.68698624E-02
   6.53999969E-02    -5.41830845E-02
   6.54999986E-02    -3.91775928E-02
   6.56000003E-02    -2.86128540E-02
   6.57000020E-02    -2.67062318E-02
   6.58000037E-02    -3.28848921E-02
   6.58999979E-02    -4.27074246E-02
   6.59999996E-02    -5.04345484E-02
   6.61000013E-02    -5.15570454E-02
   6.62000030E-02    -4.41596657E-02
   6.62999973E-02    -2.96358466E-02
   6.63999990E-02    -1.27828168E-02
   6.65000007E-02    -2.93167948E-04
   6.66000023E-02     2.71175662E-03
   6.66999966E-02    -3.47187370E-03
   6.67999983E-02    -1.22280857E-02
   6.69000000E-02    -1.43492864E-02
   6.70000017E-02    -4.23546089E-03
   6.71000034E-02     1.60222948E-02
   6.71999976E-02     3.78965065E-02
   6.72999993E-02     5.19501865E-02
   6.74000010E-02     5.35259396E-02
   6.75000027E-02     4.47899848E-02
   6.75999969E-02     3.25900353E-02
   6.76999986E-02     2.43527275E-02
   6.78000003E-02     2.45709624E-02
   6.79000020E-02     3.34882028E-02
   6.80000037E-02     4.75536026E-02
   6.80999979E-02     6.09509870E-02
   6.81999996E-02     6.78867623E-02
   6.83000013E-02     6.53794557E-02
   6.84000030E-02     5.54853640E-02
   6.84999973E-02     4.53446209E-02
   6.85999990E-02     4.36602682E-02
   6.87000006E-02     5.53078316E-02
   6.88000023E-02     7.74861798E-02
   6.88999966E-02    0.100920111    
   6.89999983E-02    0.115362711    
   6.91000000E-02    0.116027921    
   6.92000017E-02    0.106136553    
   6.93000033E-02     9.42692533E-02
   6.93999976E-02     8.85916799E-02
   6.94999993E-02     9.25848931E-02
   6.96000010E-02    0.104284324    
   6.97000027E-02    0.118352823    
   6.97999969E-02    0.128837466    
   6.98999986E-02    0.131547064    
   7.00000003E-02    0.125622556    
   7.01000020E-02    0.114324413    
   7.02000037E-02    0.104145214    
   7.02999979E-02    0.101883203    
   7.03999996E-02    0.110751227    
   7.05000013E-02    0.127963126    
   7.06000030E-02    0.145780906    
   7.06999972E-02    0.155781582    
   7.07999989E-02    0.154002130    
   7.09000006E-02    0.143193975    
   7.10000023E-02    0.130803451    
   7.10999966E-02    0.124421611    
   7.11999983E-02    0.127319485    
   7.13000000E-02    0.137227103    
   7.14000016E-02    0.148407429    
   7.15000033E-02    0.155310795    
   7.15999976E-02    0.154919386    
   7.16999993E-02    0.147461206    
   7.18000010E-02    0.135892913    
   7.19000027E-02    0.124900013    
   7.19999969E-02    0.119459443    
   7.20999986E-02    0.122494735    
   7.22000003E-02    0.133091003    
   7.23000020E-02    0.146236792    
   7.24000037E-02    0.155058682    
   7.24999979E-02    0.154683396    
   7.25999996E-02    0.145110607    
   7.27000013E-02    0.131551161    
   7.28000030E-02    0.121351846    
   7.28999972E-02    0.119647764    
   7.29999989E-02    0.126413256    
   7.31000006E-02    0.136805162    
   7.32000023E-02    0.144108713    
   7.32999966E-02    0.143216476    
   7.33999982E-02    0.133311138    
   7.34999999E-02    0.117744207    
   7.36000016E-02    0.102340095    
   7.37000033E-02     9.28216055E-02
   7.37999976E-02     9.25434902E-02
   7.38999993E-02    0.100690767    
   7.40000010E-02    0.112282529    
   7.41000026E-02    0.120048337    
   7.41999969E-02    0.118246660    
   7.42999986E-02    0.106196851    
   7.44000003E-02     8.93166289E-02
   7.45000020E-02     7.61822611E-02
   7.46000037E-02     7.32950792E-02
   7.46999979E-02     8.11132193E-02
   7.47999996E-02     9.35674682E-02
   7.49000013E-02    0.101748034    
   7.50000030E-02     9.90463123E-02
   7.50999972E-02     8.48326385E-02
   7.51999989E-02     6.44355193E-02
   7.53000006E-02     4.60137688E-02
   7.54000023E-02     3.61271836E-02
   7.54999965E-02     3.66092287E-02
   7.55999982E-02     4.41445671E-02
   7.56999999E-02     5.21274358E-02
   7.58000016E-02     5.40076122E-02
   7.59000033E-02     4.65964489E-02
   7.59999976E-02     3.18318866E-02
   7.60999992E-02     1.59437973E-02
   7.62000009E-02     6.20848313E-03
   7.63000026E-02     6.84639998E-03
   7.63999969E-02     1.63575709E-02
   7.64999986E-02     2.81163622E-02
   7.66000003E-02     3.39439921E-02
   7.67000020E-02     2.87090763E-02
   7.68000036E-02     1.31946206E-02
   7.68999979E-02    -6.50305767E-03
   7.69999996E-02    -2.26351731E-02
   7.71000013E-02    -3.02343741E-02
   7.72000030E-02    -2.95579135E-02
   7.72999972E-02    -2.53449604E-02
   7.73999989E-02    -2.36167125E-02
   7.75000006E-02    -2.82412823E-02
   7.76000023E-02    -3.90414186E-02
   7.76999965E-02    -5.21743298E-02
   7.77999982E-02    -6.22909665E-02
   7.78999999E-02    -6.54081479E-02