  -3.00000003E-03    -9.91023315E-24
  -2.89999996E-03     1.70400992E-23
  -2.79999990E-03    -5.02802034E-24
  -2.70000007E-03    -1.61414924E-24
  -2.60000001E-03    -1.68492706E-23
  -2.49999994E-03     1.95898759E-23
  -2.40000011E-03     1.91551994E-23
  -2.30000005E-03     5.54222749E-24
  -2.19999999E-03    -3.29324879E-23
  -2.09999993E-03    -3.76716423E-23
  -2.00000009E-03     2.50180610E-23
  -1.90000003E-03     5.48680591E-23
  -1.79999997E-03    -6.92578302E-24
  -1.70000002E-03    -5.16980341E-23
  -1.59999996E-03    -2.66772311E-23
  -1.50000001E-03     4.85652655E-23
  -1.39999995E-03     6.71452402E-23
  -1.30000000E-03     4.68863857E-24
  -1.20000006E-03    -7.25046476E-23
  -1.09999999E-03    -1.11090649E-22
  -1.00000005E-03     2.74990506E-23
  -8.99999985E-04     1.44269747E-22
  -7.99999980E-04     7.09228552E-23
  -6.99999975E-04    -8.82653122E-23
  -6.00000028E-04    -1.52301273E-22
  -5.00000024E-04    -1.95867505E-23
  -3.99999990E-04     1.33553066E-22
  -3.00000014E-04     1.05163123E-22
  -1.99999995E-04    -9.99964659E-24
  -9.99999975E-05    -1.17696141E-22
   0.00000000        -1.14897225E-22
   9.99999975E-05     5.77477106E-24
   1.99999995E-04     1.94744741E-22
   3.00000014E-04     3.67503462E-22
   3.99999990E-04     3.87560345E-22
   5.00000024E-04     1.95691538E-22
   6.00000028E-04    -5.25817672E-22
   6.99999975E-04    -2.85136730E-21
   7.99999980E-04    -8.26511759E-21
   8.99999985E-04    -1.65453151E-20
   1.00000005E-03    -2.02419190E-20
   1.09999999E-03     3.11368534E-21
   1.20000006E-03     9.46109410E-20
   1.30000000E-03     2.92920397E-19
   1.39999995E-03     5.53320395E-19
   1.50000001E-03     5.87087924E-19
   1.59999996E-03    -2.99381066E-19
   1.70000002E-03    -3.06210248E-18
   1.79999997E-03    -7.93444465E-18
   1.90000003E-03    -1.22349897E-17
   2.00000009E-03    -7.84154978E-18
   2.09999993E-03     1.82905581E-17
   2.19999999E-03     7.49568770E-17
   2.30000005E-03     1.45332960E-16
   2.40000011E-03     1.60836760E-16
   2.49999994E-03    -2.89428925E-18
   2.60000001E-03    -4.65390341E-16
   2.70000007E-03    -1.18653910E-15
   2.79999990E-03    -1.75434034E-15
   2.89999996E-03    -1.26966808E-15
   3.00000003E-03     1.40490198E-15
   3.10000009E-03     6.77736049E-15
   3.19999992E-03     1.32705668E-14
   3.29999998E-03     1.58492570E-14
   3.40000005E-03     6.23327988E-15
   3.50000011E-03    -2.33445838E-14
   3.59999994E-03    -7.17909754E-14
   3.70000000E-03    -1.18365035E-13
   3.80000006E-03    -1.16816645E-13
   3.89999989E-03    -6.30618570E-15
   4.00000019E-03     2.50662121E-13
   4.10000002E-03     6.06413465E-13
   4.19999985E-03     8.70914723E-13
   4.30000015E-03     7.14482998E-13
   4.39999998E-03    -2.08810020E-13
   4.49999981E-03    -1.99650778E-12
   4.60000010E-03    -4.16520724E-12
   4.69999993E-03    -5.44283108E-12
   4.80000023E-03    -3.95601434E-12
   4.90000006E-03     1.96687653E-12
   4.99999989E-03     1.24001651E-11
   5.10000018E-03     2.42844043E-11
   5.20000001E-03     3.06885871E-11
   5.29999984E-03     2.20823377E-11
   5.40000014E-03    -9.49069816E-12
   5.49999997E-03    -6.36679875E-11
   5.59999980E-03    -1.24821931E-10
   5.70000010E-03    -1.59398994E-10
   5.79999993E-03    -1.22773250E-10
   5.90000022E-03     2.13579068E-11
   6.00000005E-03     2.71830225E-10
   6.09999988E-03     5.62049240E-10
   6.20000018E-03     7.51008977E-10
   6.30000001E-03     6.51651955E-10
   6.39999984E-03     1.05330744E-10
   6.50000013E-03    -9.09327946E-10
   6.59999996E-03    -2.17074803E-09
   6.69999979E-03    -3.17078852E-09
   6.80000009E-03    -3.19531512E-09
   6.89999992E-03    -1.56447799E-09
   7.00000022E-03     1.99261763E-09
   7.10000005E-03     6.93914926E-09
   7.19999988E-03     1.16978152E-08
   7.30000017E-03     1.38019391E-08
   7.40000000E-03     1.05773221E-08
   7.49999983E-03     3.14597987E-10
   7.60000013E-03    -1.63733649E-08
   7.69999996E-03    -3.55587915E-08
   7.79999979E-03    -5.00139059E-08
   7.89999962E-03    -5.07111757E-08
   8.00000038E-03    -2.98424432E-08
   8.10000021E-03     1.52471085E-08
   8.20000004E-03     7.84486929E-08
   8.29999987E-03     1.43222181E-07
   8.39999970E-03     1.84374315E-07
   8.50000046E-03     1.74035279E-07
   8.60000029E-03     9.12506479E-08
   8.70000012E-03    -6.70416966E-08
   8.79999995E-03    -2.77268583E-07
   8.89999978E-03    -4.86822216E-07
   8.99999961E-03    -6.21151116E-07
   9.10000037E-03    -6.01018030E-07
   9.20000020E-03    -3.67249328E-07
   9.30000003E-03     9.29130408E-08
   9.39999986E-03     7.25497046E-07
   9.49999969E-03     1.40297004E-06
   9.60000046E-03     1.93613346E-06
   9.70000029E-03     2.10646203E-06
   9.80000012E-03     1.71640613E-06
   9.89999995E-03     6.50555876E-07
   9.99999978E-03    -1.06364541E-06
   1.00999996E-02    -3.21052721E-06
   1.02000004E-02    -5.37246251E-06
   1.03000002E-02    -6.96205097E-06
   1.04000000E-02    -7.30881175E-06
   1.04999999E-02    -5.79913012E-06
   1.05999997E-02    -2.05550032E-06
   1.07000005E-02     3.87334694E-06
   1.08000003E-02     1.13529659E-05
   1.09000001E-02     1.90864066E-05
   1.09999999E-02     2.51732454E-05
   1.10999998E-02     2.73468959E-05
   1.11999996E-02     2.34012914E-05
   1.13000004E-02     1.17714981E-05
   1.14000002E-02    -7.82285315E-06
   1.15000000E-02    -3.38121135E-05
   1.15999999E-02    -6.24520762E-05
   1.16999997E-02    -8.78971769E-05
   1.18000004E-02    -1.02781589E-04
   1.19000003E-02    -9.93447684E-05
   1.20000001E-02    -7.10389431E-05
   1.20999999E-02    -1.44444812E-05
   1.21999998E-02     6.88160144E-05
   1.22999996E-02     1.70566520E-04
   1.24000004E-02     2.75442406E-04
   1.25000002E-02     3.61560698E-04
   1.26000000E-02     4.02814243E-04
   1.26999998E-02     3.72839655E-04
   1.27999997E-02     2.50392506E-04
   1.29000004E-02     2.55053292E-05
   1.30000003E-02    -2.94561003E-04
   1.31000001E-02    -6.80781435E-04
   1.31999999E-02    -1.08059263E-03
   1.32999998E-02    -1.42005750E-03
   1.33999996E-02    -1.61078561E-03
   1.35000004E-02    -1.56175939E-03
   1.36000002E-02    -1.19536894E-03
   1.37000000E-02    -4.65925637E-04
   1.37999998E-02     6.21785410E-04
   1.38999997E-02     1.99713092E-03
   1.40000004E-02     3.51485796E-03
   1.41000003E-02     4.95618954E-03
   1.42000001E-02     6.04230911E-03
   1.42999999E-02     6.46138983E-03
   1.43999998E-02     5.90908574E-03
   1.44999996E-02     4.13967390E-03
   1.46000003E-02     1.02343259E-03
   1.47000002E-02    -3.39603936E-03
   1.48000000E-02    -8.85283668E-03
   1.48999998E-02    -1.48259448E-02
   1.49999997E-02    -2.05313377E-02
   1.51000004E-02    -2.49446556E-02
   1.52000003E-02    -2.68588141E-02
   1.53000001E-02    -2.49753874E-02
   1.53999999E-02    -1.80268679E-02
   1.54999997E-02    -4.91671171E-03
   1.55999996E-02     1.51290977E-02
   1.56999994E-02     4.24243994E-02
   1.57999992E-02     7.67085850E-02
   1.59000009E-02    0.117077924    
   1.60000008E-02    0.161976084    
   1.61000006E-02    0.209244445    
   1.62000004E-02    0.256248951    
   1.63000003E-02    0.300064117    
   1.64000001E-02    0.337702900    
   1.64999999E-02    0.366381317    
   1.65999997E-02    0.383766472    
   1.66999996E-02    0.388206780    
   1.67999994E-02    0.378911346    
   1.68999992E-02    0.356047750    
   1.70000009E-02    0.320750117    
   1.71000008E-02    0.275035620    
   1.72000006E-02    0.221653357    
   1.73000004E-02    0.163834557    
   1.74000002E-02    0.105017900    
   1.75000001E-02     4.85695638E-02
   1.75999999E-02    -2.50271265E-03
   1.76999997E-02    -4.58137281E-02
   1.77999996E-02    -7.96936676E-02
   1.78999994E-02   -0.103343293    
   1.79999992E-02   -0.116817020    
   1.81000009E-02   -0.121039726    
   1.82000007E-02   -0.117587358    
   1.83000006E-02   -0.108492114    
   1.84000004E-02    -9.60071608E-02
   1.85000002E-02    -8.23773816E-02
   1.86000001E-02    -6.96948171E-02
   1.86999999E-02    -5.97248562E-02
   1.87999997E-02    -5.36223501E-02
   1.88999996E-02    -5.20021431E-02
   1.89999994E-02    -5.47901466E-02
   1.90999992E-02    -6.14478514E-02
   1.92000009E-02    -7.11259544E-02
   1.93000007E-02    -8.27431381E-02
   1.94000006E-02    -9.50424969E-02
   1.95000004E-02   -0.106870875    
   1.96000002E-02   -0.117322885    
   1.97000001E-02   -0.125989631    
   1.97999999E-02   -0.132753879    
   1.98999997E-02   -0.137652203    
   1.99999996E-02   -0.140874088    
   2.00999994E-02   -0.142811060    
   2.01999992E-02   -0.143907860    
   2.03000009E-02   -0.144348025    
   2.04000007E-02   -0.143996015    
   2.05000006E-02   -0.142690822    
   2.06000004E-02   -0.140363857    
   2.07000002E-02   -0.136885524    
   2.08000001E-02   -0.132129461    
   2.08999999E-02   -0.126282603    
   2.09999997E-02   -0.120082662    
   2.10999995E-02   -0.114568390    
   2.11999994E-02   -0.110790499    
   2.12999992E-02   -0.109635808    
   2.14000009E-02   -0.111841604    
   2.15000007E-02   -0.117767610    
   2.16000006E-02   -0.127254263    
   2.17000004E-02   -0.139142379    
   2.18000002E-02   -0.151802361    
   2.19000001E-02   -0.163451388    
   2.19999999E-02   -0.172433361    
   2.20999997E-02   -0.177137092    
   2.21999995E-02   -0.176304638    
   2.22999994E-02   -0.169637784    
   2.23999992E-02   -0.158029452    
   2.25000009E-02   -0.143286571    
   2.26000007E-02   -0.127453715    
   2.27000006E-02   -0.112546220    
   2.28000004E-02   -0.100546762    
   2.29000002E-02    -9.31081176E-02
   2.30000000E-02    -9.11531448E-02
   2.30999999E-02    -9.43847224E-02
   2.31999997E-02   -0.101543166    
   2.32999995E-02   -0.110908523    
   2.33999994E-02   -0.120550469    
   2.34999992E-02   -0.128678039    
   2.36000009E-02   -0.133802563    
   2.37000007E-02   -0.135069683    
   2.38000005E-02   -0.132559374    
   2.39000004E-02   -0.126908988    
   2.40000002E-02   -0.119042225    
   2.41000000E-02   -0.110148899    
   2.41999999E-02   -0.101478972    
   2.42999997E-02    -9.40246433E-02
   2.43999995E-02    -8.80840272E-02
   2.44999994E-02    -8.33813325E-02
   2.45999992E-02    -7.93076530E-02
   2.47000009E-02    -7.52888322E-02
   2.48000007E-02    -7.07881525E-02
   2.49000005E-02    -6.53807670E-02
   2.50000004E-02    -5.89984097E-02
   2.51000002E-02    -5.22032157E-02
   2.52000000E-02    -4.61249016E-02
   2.52999999E-02    -4.18901928E-02
   2.53999997E-02    -4.01083007E-02
   2.54999995E-02    -4.08595093E-02
   2.55999994E-02    -4.37660553E-02
   2.56999992E-02    -4.80761677E-02
   2.58000009E-02    -5.25956042E-02
   2.59000007E-02    -5.58153875E-02
   2.60000005E-02    -5.63208833E-02
   2.61000004E-02    -5.31742498E-02
   2.62000002E-02    -4.59585302E-02
   2.63000000E-02    -3.47541869E-02
   2.63999999E-02    -2.01674420E-02
   2.64999997E-02    -3.50788678E-03
   2.65999995E-02     1.33210411E-02
   2.66999993E-02     2.82934271E-02
   2.67999992E-02     3.97633649E-02
   2.69000009E-02     4.67425622E-02
   2.70000007E-02     4.89582978E-02
   2.71000005E-02     4.68342826E-02
   2.72000004E-02     4.13747579E-02
   2.73000002E-02     3.39129493E-02
   2.74000000E-02     2.58171614E-02
   2.74999999E-02     1.83968041E-02
   2.75999997E-02     1.30406283E-02
   2.76999995E-02     1.11891497E-02
   2.77999993E-02     1.40169170E-02
   2.78999992E-02     2.19258871E-02
   2.80000009E-02     3.44422646E-02
   2.81000007E-02     5.03069088E-02
   2.82000005E-02     6.77229241E-02
   2.83000004E-02     8.45208988E-02
   2.84000002E-02     9.86462310E-02
   2.85000000E-02    0.108652391    
   2.85999998E-02    0.114031829    
   2.86999997E-02    0.114958972    
   2.87999995E-02    0.111952081    
   2.88999993E-02    0.105570100    
   2.89999992E-02     9.67139080E-02
   2.91000009E-02     8.71170238E-02
   2.92000007E-02     7.90782571E-02
   2.93000005E-02     7.48356655E-02
   2.94000003E-02     7.59935230E-02
   2.95000002E-02     8.26878026E-02
   2.96000000E-02     9.36689451E-02
   2.96999998E-02    0.106739208    
   2.97999997E-02    0.119538248    
   2.98999995E-02    0.130261108    
   2.99999993E-02    0.138078675    
   3.00999992E-02    0.143151075    
   3.02000009E-02    0.145724818    
   3.03000007E-02    0.145887539    
   3.04000005E-02    0.143582150    
   3.05000003E-02    0.139025658    
   3.06000002E-02    0.132989839    
   3.07000000E-02    0.126809582    
   3.07999998E-02    0.122347541    
   3.08999997E-02    0.121353902    
   3.09999995E-02    0.124491997    
   3.10999993E-02    0.130772218    
   3.11999992E-02    0.137826264    
   3.13000008E-02    0.143155947    
   3.13999988E-02    0.145499453    
   3.15000005E-02    0.145222560    
   3.15999985E-02    0.143867761    
   3.17000002E-02    0.142811671    
   3.18000019E-02    0.142464906    
   3.18999998E-02    0.142036781    
   3.20000015E-02    0.140283436    
   3.20999995E-02    0.136653662    
   3.22000012E-02    0.131851137    
   3.22999991E-02    0.127708405    
   3.24000008E-02    0.126006246    
   3.24999988E-02    0.127628773    
   3.26000005E-02    0.131721541    
   3.26999985E-02    0.136317044    
   3.28000002E-02    0.139118999    
   3.29000019E-02    0.138704926    
   3.29999998E-02    0.135186270    
   3.31000015E-02    0.130200922    
   3.31999995E-02    0.126036614    
   3.33000012E-02    0.123990044    
   3.33999991E-02    0.123461030    
   3.35000008E-02    0.122192703    
   3.35999988E-02    0.118014820    
   3.37000005E-02    0.110438131    
   3.37999985E-02    0.101174548    
   3.39000002E-02     9.30221155E-02
   3.40000018E-02     8.83294567E-02
   3.40999998E-02     8.76293629E-02
   3.42000015E-02     8.95216390E-02
   3.42999995E-02     9.14159045E-02
   3.44000012E-02     9.12423357E-02
   3.44999991E-02     8.85811001E-02
   3.46000008E-02     8.48692134E-02
   3.46999988E-02     8.24344009E-02
   3.48000005E-02     8.27770829E-02
   3.48999985E-02     8.53099972E-02
   3.50000001E-02     8.73447284E-02
   3.51000018E-02     8.53857771E-02
   3.51999998E-02     7.71645084E-02
   3.53000015E-02     6.31995425E-02
   3.53999995E-02     4.68284674E-02
   3.55000012E-02     3.25999744E-02
   3.55999991E-02     2.36547887E-02
   3.57000008E-02     2.00280789E-02
   3.57999988E-02     1.89822018E-02
   3.59000005E-02     1.73162278E-02
   3.59999985E-02     1.37963369E-02
   3.61000001E-02     9.99340694E-03
   3.62000018E-02     8.96553695E-03
   3.62999998E-02     1.28281144E-02
   3.64000015E-02     2.09542867E-02
   3.64999995E-02     2.97860894E-02
   3.66000012E-02     3.43492292E-02
   3.66999991E-02     3.07265520E-02
   3.68000008E-02     1.82203036E-02
   3.68999988E-02    -7.54021239E-05
   3.70000005E-02    -1.87906958E-02
   3.70999984E-02    -3.31834964E-02
   3.72000001E-02    -4.16234732E-02
   3.73000018E-02    -4.60506268E-02
   3.73999998E-02    -5.00793867E-02
   3.75000015E-02    -5.61719537E-02
   3.75999995E-02    -6.37110397E-02
   3.77000012E-02    -6.94005266E-02
   3.77999991E-02    -6.96518645E-02
   3.79000008E-02    -6.33839220E-02
   3.79999988E-02    -5.32500297E-02
   3.81000005E-02    -4.42503542E-02
   3.81999984E-02    -4.09919322E-02
   3.83000001E-02    -4.50870916E-02
   3.84000018E-02    -5.47503792E-02
   3.84999998E-02    -6.62589595E-02
   3.86000015E-02    -7.61989057E-02
   3.86999995E-02    -8.29986036E-02
   3.88000011E-02    -8.74527693E-02
   3.88999991E-02    -9.19080600E-02
   3.90000008E-02    -9.86274779E-02
   3.90999988E-02   -0.108165279    
   3.92000005E-02   -0.118656307    
   3.92999984E-02   -0.126751527    
   3.94000001E-02   -0.129838511    
   3.95000018E-02   -0.127727255    
   3.95999998E-02   -0.122513443    
   3.97000015E-02   -0.117083177    
   3.97999994E-02   -0.113349833    
   3.99000011E-02   -0.111635186    
   3.99999991E-02   -0.111391068    
   4.01000008E-02   -0.111770518    
   4.01999988E-02   -0.112308554    
   4.03000005E-02   -0.113304533    
   4.03999984E-02   -0.115384191    
   4.05000001E-02   -0.119021125    
   4.06000018E-02   -0.124333411    
   4.06999998E-02   -0.131116971    
   4.08000015E-02   -0.139066830    
   4.08999994E-02   -0.147693440    
   4.10000011E-02   -0.155636355    
   4.10999991E-02   -0.161115289    
   4.12000008E-02   -0.162595242    
   4.12999988E-02   -0.159663424    
   4.14000005E-02   -0.153200224    
   4.14999984E-02   -0.144764856    
   4.16000001E-02   -0.136285111    
   4.17000018E-02   -0.129514635    
   4.17999998E-02   -0.125624418    
   4.19000015E-02   -0.124553658    
   4.19999994E-02   -0.124926545    
   4.21000011E-02   -0.124952570    
   4.21999991E-02   -0.124029681    
   4.23000008E-02   -0.123406008    
   4.23999988E-02   -0.125399798    
   4.25000004E-02   -0.131351635    
   4.25999984E-02   -0.140186593    
   4.27000001E-02   -0.148874104    
   4.28000018E-02   -0.153893918    
   4.28999998E-02   -0.152822375    
   4.30000015E-02   -0.145474494    
   4.30999994E-02   -0.134140730    
   4.32000011E-02   -0.122664407    
   4.32999991E-02   -0.114522226    
   4.34000008E-02   -0.111037314    
   4.34999987E-02   -0.110696219    
   4.36000004E-02   -0.110183880    
   4.36999984E-02   -0.106598623    
   4.38000001E-02    -9.92986858E-02
   4.39000018E-02    -9.03465599E-02
   4.39999998E-02    -8.36212337E-02
   4.41000015E-02    -8.27504545E-02
   4.41999994E-02    -8.87134075E-02
   4.43000011E-02    -9.85006094E-02
   4.43999991E-02   -0.106546901    
   4.45000008E-02   -0.107735611    
   4.45999987E-02   -0.100564487    
   4.47000004E-02    -8.78333449E-02
   4.47999984E-02    -7.48285428E-02
   4.49000001E-02    -6.62863404E-02
   4.50000018E-02    -6.40687346E-02
   4.50999998E-02    -6.61968738E-02
   4.52000014E-02    -6.79003596E-02
   4.52999994E-02    -6.42024651E-02
   4.54000011E-02    -5.31003512E-02
   4.54999991E-02    -3.73060443E-02
   4.56000008E-02    -2.30751131E-02
   4.56999987E-02    -1.64584816E-02
   4.58000004E-02    -1.93967260E-02
   4.58999984E-02    -2.84249112E-02
   4.60000001E-02    -3.66583727E-02
   4.61000018E-02    -3.77565809E-02
   4.61999997E-02    -2.94379629E-02
   4.63000014E-02    -1.47771277E-02
   4.63999994E-02    -5.60639135E-04
   4.65000011E-02     6.62619574E-03
   4.65999991E-02     4.45247628E-03
   4.67000008E-02    -3.46287061E-03
   4.67999987E-02    -9.60589293E-03
   4.69000004E-02    -7.09811551E-03
   4.69999984E-02     6.15258794E-03
   4.71000001E-02     2.62061767E-02
   4.72000018E-02     4.52487767E-02
   4.72999997E-02     5.57828471E-02
   4.74000014E-02     5.48023358E-02
   4.74999994E-02     4.56197821E-02
   4.76000011E-02     3.62172127E-02
   4.76999991E-02     3.44887786E-02
   4.78000008E-02     4.32727523E-02
   4.78999987E-02     5.85261136E-02
   4.80000004E-02     7.20409155E-02
   4.80999984E-02     7.67280385E-02
   4.82000001E-02     7.10709989E-02
   4.83000018E-02     5.99655062E-02
   4.83999997E-02     5.18700927E-02
   4.85000014E-02     5.41017726E-02
   4.85999994E-02     6.85784146E-02
   4.87000011E-02     9.04493481E-02
   4.87999991E-02    0.110337496    
   4.89000008E-02    0.119691491    
   4.89999987E-02    0.115887061    
   4.91000004E-02    0.103725746    
   4.91999984E-02     9.24493745E-02
   4.93000001E-02     9.01627392E-02
   4.94000018E-02     9.92869586E-02
   4.94999997E-02    0.115307659    
   4.96000014E-02    0.129700273    
   4.96999994E-02    0.134589791    
   4.98000011E-02    0.127589583    
   4.98999991E-02    0.113688372    
   5.00000007E-02    0.102375306    
   5.00999987E-02    0.102016538    
   5.02000004E-02    0.114534132    
   5.02999984E-02    0.134322226    
   5.04000001E-02    0.151617438    
   5.05000018E-02    0.158144131    
   5.05999997E-02    0.151513621    
   5.07000014E-02    0.136340916    
   5.07999994E-02    0.121993408    
   5.09000011E-02    0.117545530    
   5.09999990E-02    0.126444951    
   5.11000007E-02    0.143903255    
   5.11999987E-02    0.159733996    
   5.13000004E-02    0.164586931    
   5.13999984E-02    0.155671567    
   5.15000001E-02    0.138243929    
   5.16000018E-02    0.122299075    
   5.16999997E-02    0.116817780    
   5.18000014E-02    0.124798551    
   5.18999994E-02    0.141669467    
   5.20000011E-02    0.157528833    
   5.20999990E-02    0.162682086    
   5.22000007E-02    0.153507411    
   5.22999987E-02    0.134996355    
   5.24000004E-02    0.117790870    
   5.24999984E-02    0.111614317    
   5.26000001E-02    0.119673274    
   5.27000017E-02    0.136976749    
   5.27999997E-02    0.153140396    
   5.29000014E-02    0.158055738    
   5.29999994E-02    0.147528887    
   5.31000011E-02    0.126043096    
   5.31999990E-02    0.104619622    
   5.33000007E-02     9.41408351E-02
   5.33999987E-02     9.86928418E-02
   5.35000004E-02    0.113093056    
   5.35999984E-02    0.126855999    
   5.37000000E-02    0.130656302    
   5.38000017E-02    0.121694051    
   5.38999997E-02    0.104566514    
   5.40000014E-02     8.80973414E-02
   5.40999994E-02     8.05054531E-02
   5.42000011E-02     8.48499909E-02
   5.42999990E-02     9.71419141E-02
   5.44000007E-02    0.108399130    
   5.44999987E-02    0.110120527    
   5.46000004E-02     9.92183089E-02
   5.46999983E-02     7.95829967E-02
   5.48000000E-02     5.94937727E-02
   5.49000017E-02     4.69123125E-02
   5.49999997E-02     4.55138087E-02
   5.51000014E-02     5.30855320E-02
   5.51999994E-02     6.28461689E-02
   5.53000011E-02     6.71001971E-02
   5.53999990E-02     6.18610643E-02
   5.55000007E-02     4.91194166E-02
   5.55999987E-02     3.52274217E-02
   5.57000004E-02     2.62639467E-02
   5.57999983E-02     2.43642628E-02
   5.59000000E-02     2.74728183E-02
   5.60000017E-02     3.16296890E-02
   5.60999997E-02     3.32377069E-02
   5.62000014E-02     2.99950391E-02
   5.62999994E-02     2.12819669E-02
   5.64000010E-02     8.66505411E-03
   5.64999990E-02    -4.25928179E-03
   5.66000007E-02    -1.35598145E-02
   5.66999987E-02    -1.72667112E-02
   5.68000004E-02    -1.64494794E-02
   5.68999983E-02    -1.43650416E-02
   5.70000000E-02    -1.46206962E-02
   5.71000017E-02    -1.95043907E-02
   5.71999997E-02    -2.89302189E-02
   5.73000014E-02    -4.02651094E-02
   5.73999994E-02    -4.95528877E-02
   5.75000010E-02    -5.37422039E-02
   5.75999990E-02    -5.25355823E-02
   5.77000007E-02    -4.81519438E-02
   5.77999987E-02    -4.37975675E-02
   5.79000004E-02    -4.21805456E-02
   5.79999983E-02    -4.53112349E-02
   5.81000000E-02    -5.41158393E-02
   5.82000017E-02    -6.73119649E-02
   5.82999997E-02    -8.07108432E-02
   5.84000014E-02    -8.92177746E-02
   5.84999993E-02    -9.04776677E-02
   5.86000010E-02    -8.71637240E-02
   5.86999990E-02    -8.50650370E-02
   5.88000007E-02    -8.88146982E-02
   5.88999987E-02    -9.87083167E-02
   5.90000004E-02   -0.111049697    
   5.90999983E-02   -0.120697416    
   5.92000000E-02   -0.123752512    
   5.93000017E-02   -0.119380318    
   5.93999997E-02   -0.110021822    
   5.95000014E-02   -0.100342594    
   5.95999993E-02    -9.52900872E-02
   5.97000010E-02    -9.76746306E-02
   5.97999990E-02   -0.106959224    
   5.99000007E-02   -0.119686708    
   5.99999987E-02   -0.130895779    
   6.01000004E-02   -0.136271328    
   6.01999983E-02   -0.134520948    
   6.03000000E-02   -0.128697827    
   6.04000017E-02   -0.124960162    
   6.04999997E-02   -0.128374368    
   6.06000014E-02   -0.138872415    
   6.06999993E-02   -0.151196450    
   6.08000010E-02   -0.158829600    
   6.08999990E-02   -0.158529356    
   6.10000007E-02   -0.151512876    
   6.10999987E-02   -0.141567856    
   6.12000003E-02   -0.132571101    
   6.12999983E-02   -0.127306253    
   6.14000000E-02   -0.127219468    
   6.15000017E-02   -0.131932467    
   6.15999997E-02   -0.138766646    
   6.17000014E-02   -0.143542007    
   6.17999993E-02   -0.143191278    
   6.19000010E-02   -0.137989014    
   6.19999990E-02   -0.131612450    
   6.21000007E-02   -0.128570020    
   6.21999986E-02   -0.131329745    
   6.23000003E-02   -0.138990909    
   6.23999983E-02   -0.147781238    
   6.25000000E-02   -0.153494224    
   6.26000017E-02   -0.153726339    
   6.27000034E-02   -0.148817062    
   6.27999976E-02   -0.140860721    
   6.28999993E-02   -0.131846607    
   6.30000010E-02   -0.123128489    
   6.31000027E-02   -0.116126545    
   6.31999969E-02   -0.112337753    
   6.32999986E-02   -0.112226114    
   6.34000003E-02   -0.113875210    
   6.35000020E-02   -0.113693647    
   6.36000037E-02   -0.109335981    
   6.36999980E-02   -0.101888239    
   6.37999997E-02    -9.51808318E-02
   6.39000013E-02    -9.25470069E-02
   6.40000030E-02    -9.45429131E-02
   6.40999973E-02    -9.94073823E-02
   6.41999990E-02   -0.104819193    
   6.43000007E-02   -0.108615071    
   6.44000024E-02   -0.108703010    
   6.44999966E-02   -0.103049941    
   6.45999983E-02    -9.13069025E-02
   6.47000000E-02    -7.61507004E-02
   6.48000017E-02    -6.28172830E-02
   6.49000034E-02    -5.61633259E-02
   6.49999976E-02    -5.72474673E-02
   6.50999993E-02    -6.21607974E-02
   6.52000010E-02    -6.43464252E-02
   6.53000027E-02    -5.87918982E-02
   6.53999969E-02    -4.56254110E-02
   6.54999986E-02    -3.01599111E-02
   6.56000003E-02    -1.93865988E-02
   6.57000020E-02    -1.74728464E-02
   6.58000037E-02    -2.35419683E-02
   6.58999979E-02    -3.29584181E-02
   6.59999996E-02    -4.02262807E-02
   6.61000013E-02    -4.11243550E-02
   6.62000030E-02    -3.37242559E-02
   6.62999973E-02    -1.90808624E-02
   6.63999990E-02    -1.83197146E-03
   6.65000007E-02     1.10529754E-02
   6.66000023E-02     1.41440872E-02
   6.66999966E-02     7.82794040E-03
   6.67999983E-02    -9.04262764E-04
   6.69000000E-02    -2.68934225E-03
   6.70000017E-02     7.80186895E-03
   6.71000034E-02     2.81788222E-02
   6.71999976E-02     4.99735996E-02
   6.72999993E-02     6.40070215E-02
   6.74000010E-02     6.56968206E-02
   6.75000027E-02     5.71270473E-02
   6.75999969E-02     4.50656153E-02
   6.76999986E-02     3.69190909E-02
   6.78000003E-02     3.71888131E-02
   6.79000020E-02     4.60142381E-02
   6.80000037E-02     5.99128008E-02
   6.80999979E-02     7.32859820E-02
   6.81999996E-02     8.04036111E-02
   6.83000013E-02     7.80327544E-02
   6.84000030E-02     6.79453760E-02
   6.84999973E-02     5.74547276E-02
   6.85999990E-02     5.56791201E-02
   6.87000006E-02     6.75713643E-02
   6.88000023E-02     8.99312869E-02
   6.88999966E-02    0.113053665    
   6.89999983E-02    0.126981109    
   6.91000000E-02    0.127461657    
   6.92000017E-02    0.117852762    
   6.93000033E-02    0.106185317    
   6.93999976E-02    0.100229301    
   6.94999993E-02    0.103604950    
   6.96000010E-02    0.114890322    
   6.97000027E-02    0.128900677    
   6.97999969E-02    0.139417589    
   6.98999986E-02    0.141923770    
   7.00000003E-02    0.135699153    
   7.01000020E-02    0.124206521    
   7.02000037E-02    0.113820724    
   7.02999979E-02    0.111159980    
   7.03999996E-02    0.119502045    
   7.05000013E-02    0.136392593    
   7.06000030E-02    0.154179424    
   7.06999972E-02    0.164102584    
   7.07999989E-02    0.161914334    
   7.09000006E-02    0.150552154    
   7.10000023E-02    0.137916058    
   7.10999966E-02    0.131398767    
   7.11999983E-02    0.133830845    
   7.13000000E-02    0.142961159    
   7.14000016E-02    0.153635249    
   7.15000033E-02    0.160525814    
   7.15999976E-02    0.160212621    
   7.16999993E-02    0.152425066    
   7.18000010E-02    0.140069813    
   7.19000027E-02    0.128340974    
   7.19999969E-02    0.122481897    
   7.20999986E-02    0.125283971    
   7.22000003E-02    0.135546431    
   7.23000020E-02    0.148351446    
   7.24000037E-02    0.156884059    
   7.24999979E-02    0.156159475    
   7.25999996E-02    0.146041453    
   7.27000013E-02    0.131731242    
   7.28000030E-02    0.120929293    
   7.28999972E-02    0.118949704    
   7.29999989E-02    0.125633091    
   7.31000006E-02    0.135683388    
   7.32000023E-02    0.142286435    
   7.32999966E-02    0.140825182    
   7.33999982E-02    0.130669340    
   7.34999999E-02    0.114828900    
   7.36000016E-02     9.88052413E-02
   7.37000033E-02     8.85441303E-02
   7.37999976E-02     8.78186151E-02
   7.38999993E-02     9.58658233E-02
   7.40000010E-02    0.107305564    
   7.41000026E-02    0.114597112    
   7.41999969E-02    0.112170994    
   7.42999986E-02     9.96894091E-02
   7.44000003E-02     8.24210867E-02
   7.45000020E-02     6.86875805E-02
   7.46000037E-02     6.52841702E-02
   7.46999979E-02     7.29232281E-02
   7.47999996E-02     8.54527354E-02
   7.49000013E-02     9.33819637E-02
   7.50000030E-02     8.98982733E-02
   7.50999972E-02     7.49045014E-02
   7.51999989E-02     5.42917773E-02
   7.53000006E-02     3.60065773E-02
   7.54000023E-02     2.58927513E-02
   7.54999965E-02     2.56521013E-02
   7.55999982E-02     3.25695910E-02
   7.56999999E-02     4.05470207E-02
   7.58000016E-02     4.26937304E-02
   7.59000033E-02     3.50533575E-02
   7.59999976E-02     1.94498077E-02
   7.60999992E-02     2.78462656E-03
   7.62000009E-02    -7.08517339E-03
   7.63000026E-02    -6.13289326E-03
   7.63999969E-02     3.53630329E-03
   7.64999986E-02     1.50162764E-02
   7.66000003E-02     2.03512572E-02
   7.67000020E-02     1.47247966E-02
   7.68000036E-02    -9.98609234E-04
   7.68999979E-02    -2.07477752E-02
   7.69999996E-02    -3.68209928E-02
   7.71000013E-02    -4.43717092E-02
   7.72000030E-02    -4.38658409E-02
   7.72999972E-02    -4.00282107E-02
   7.73999989E-02    -3.85798141E-02
   7.75000006E-02    -4.30947505E-02
   7.76000023E-02    -5.36086559E-02
   7.76999965E-02    -6.67886510E-02
   7.77999982E-02    -7.73333162E-02
   7.78999999E-02    -8.07489157E-02